# vtk DataFile Version 2.0
VTK from Matlab
ASCII
DATASET STRUCTURED_GRID
DIMENSIONS 68 68 1
POINTS 4624 float
-49.50 90.00 0.00 -51.00 90.00 0.00 -52.50 90.00 0.00 -54.00 90.00 0.00 -55.50 90.00 0.00 -57.00 90.00 0.00 -58.50 90.00 0.00 -60.00 90.00 0.00 -61.50 90.00 0.00 -63.00 90.00 0.00 -64.50 90.00 0.00 -66.00 90.00 0.00 -67.50 90.00 0.00 -69.00 90.00 0.00 -70.50 90.00 0.00 -72.00 90.00 0.00 -73.50 90.00 0.00 -75.00 90.00 0.00 -76.50 90.00 0.00 -78.00 90.00 0.00 -79.50 90.00 0.00 -81.00 90.00 0.00 -82.50 90.00 0.00 -84.00 90.00 0.00 -85.50 90.00 0.00 -87.00 90.00 0.00 -88.50 90.00 0.00 -90.00 90.00 0.00 -91.50 90.00 0.00 -93.00 90.00 0.00 -94.50 90.00 0.00 -96.00 90.00 0.00 -97.50 90.00 0.00 -99.00 90.00 0.00 -100.50 90.00 0.00 -102.00 90.00 0.00 -103.50 90.00 0.00 -105.00 90.00 0.00 -106.50 90.00 0.00 -108.00 90.00 0.00 -109.50 90.00 0.00 -111.00 90.00 0.00 -112.50 90.00 0.00 -114.00 90.00 0.00 -115.50 90.00 0.00 -117.00 90.00 0.00 -118.50 90.00 0.00 -120.00 90.00 0.00 -121.50 90.00 0.00 -123.00 90.00 0.00 -124.50 90.00 0.00 -126.00 90.00 0.00 -127.50 90.00 0.00 -129.00 90.00 0.00 -130.50 90.00 0.00 -132.00 90.00 0.00 -133.50 90.00 0.00 -135.00 90.00 0.00 -136.50 90.00 0.00 -138.00 90.00 0.00 -139.50 90.00 0.00 -141.00 90.00 0.00 -142.50 90.00 0.00 -144.00 90.00 0.00 -145.50 90.00 0.00 -147.00 90.00 0.00 -148.50 90.00 0.00 -150.00 90.00 0.00 -49.50 88.50 0.00 -51.00 88.50 0.00 -52.50 88.50 0.00 -54.00 88.50 0.00 -55.50 88.50 0.00 -57.00 88.50 0.00 -58.50 88.50 0.00 -60.00 88.50 0.00 -61.50 88.50 0.00 -63.00 88.50 0.00 -64.50 88.50 0.00 -66.00 88.50 0.00 -67.50 88.50 0.00 -69.00 88.50 0.00 -70.50 88.50 0.00 -72.00 88.50 0.00 -73.50 88.50 0.00 -75.00 88.50 0.00 -76.50 88.50 0.00 -78.00 88.50 0.00 -79.50 88.50 0.00 -81.00 88.50 0.00 -82.50 88.50 0.00 -84.00 88.50 0.00 -85.50 88.50 0.00 -87.00 88.50 0.00 -88.50 88.50 0.00 -90.00 88.50 0.00 -91.50 88.50 0.00 -93.00 88.50 0.00 -94.50 88.50 0.00 -96.00 88.50 0.00 -97.50 88.50 0.00 -99.00 88.50 0.00 -100.50 88.50 0.00 -102.00 88.50 0.00 -103.50 88.50 0.00 -105.00 88.50 0.00 -106.50 88.50 0.00 -108.00 88.50 0.00 -109.50 88.50 0.00 -111.00 88.50 0.00 -112.50 88.50 0.00 -114.00 88.50 0.00 -115.50 88.50 0.00 -117.00 88.50 0.00 -118.50 88.50 0.00 -120.00 88.50 0.00 -121.50 88.50 0.00 -123.00 88.50 0.00 -124.50 88.50 0.00 -126.00 88.50 0.00 -127.50 88.50 0.00 -129.00 88.50 0.00 -130.50 88.50 0.00 -132.00 88.50 0.00 -133.50 88.50 0.00 -135.00 88.50 0.00 -136.50 88.50 0.00 -138.00 88.50 0.00 -139.50 88.50 0.00 -141.00 88.50 0.00 -142.50 88.50 0.00 -144.00 88.50 0.00 -145.50 88.50 0.00 -147.00 88.50 0.00 -148.50 88.50 0.00 -150.00 88.50 0.00 -49.50 87.00 0.00 -51.00 87.00 0.00 -52.50 87.00 0.00 -54.00 87.00 0.00 -55.50 87.00 0.00 -57.00 87.00 0.00 -58.50 87.00 0.00 -60.00 87.00 0.00 -61.50 87.00 0.00 -63.00 87.00 0.00 -64.50 87.00 0.00 -66.00 87.00 0.00 -67.50 87.00 0.00 -69.00 87.00 0.00 -70.50 87.00 0.00 -72.00 87.00 0.00 -73.50 87.00 0.00 -75.00 87.00 0.00 -76.50 87.00 0.00 -78.00 87.00 0.00 -79.50 87.00 0.00 -81.00 87.00 0.00 -82.50 87.00 0.00 -84.00 87.00 0.00 -85.50 87.00 0.00 -87.00 87.00 0.00 -88.50 87.00 0.00 -90.00 87.00 0.00 -91.50 87.00 0.00 -93.00 87.00 0.00 -94.50 87.00 0.00 -96.00 87.00 0.00 -97.50 87.00 0.00 -99.00 87.00 0.00 -100.50 87.00 0.00 -102.00 87.00 0.00 -103.50 87.00 0.00 -105.00 87.00 0.00 -106.50 87.00 0.00 -108.00 87.00 0.00 -109.50 87.00 0.00 -111.00 87.00 0.00 -112.50 87.00 0.00 -114.00 87.00 0.00 -115.50 87.00 0.00 -117.00 87.00 0.00 -118.50 87.00 0.00 -120.00 87.00 0.00 -121.50 87.00 0.00 -123.00 87.00 0.00 -124.50 87.00 0.00 -126.00 87.00 0.00 -127.50 87.00 0.00 -129.00 87.00 0.00 -130.50 87.00 0.00 -132.00 87.00 0.00 -133.50 87.00 0.00 -135.00 87.00 0.00 -136.50 87.00 0.00 -138.00 87.00 0.00 -139.50 87.00 0.00 -141.00 87.00 0.00 -142.50 87.00 0.00 -144.00 87.00 0.00 -145.50 87.00 0.00 -147.00 87.00 0.00 -148.50 87.00 0.00 -150.00 87.00 0.00 -49.50 85.50 0.00 -51.00 85.50 0.00 -52.50 85.50 0.00 -54.00 85.50 0.00 -55.50 85.50 0.00 -57.00 85.50 0.00 -58.50 85.50 0.00 -60.00 85.50 0.00 -61.50 85.50 0.00 -63.00 85.50 0.00 -64.50 85.50 0.00 -66.00 85.50 0.00 -67.50 85.50 0.00 -69.00 85.50 0.00 -70.50 85.50 0.00 -72.00 85.50 0.00 -73.50 85.50 0.00 -75.00 85.50 0.00 -76.50 85.50 0.00 -78.00 85.50 0.00 -79.50 85.50 0.00 -81.00 85.50 0.00 -82.50 85.50 0.00 -84.00 85.50 0.00 -85.50 85.50 0.00 -87.00 85.50 0.00 -88.50 85.50 0.00 -90.00 85.50 0.00 -91.50 85.50 0.00 -93.00 85.50 0.00 -94.50 85.50 0.00 -96.00 85.50 0.00 -97.50 85.50 0.00 -99.00 85.50 0.00 -100.50 85.50 0.00 -102.00 85.50 0.00 -103.50 85.50 0.00 -105.00 85.50 0.00 -106.50 85.50 0.00 -108.00 85.50 0.00 -109.50 85.50 0.00 -111.00 85.50 0.00 -112.50 85.50 0.00 -114.00 85.50 0.00 -115.50 85.50 0.00 -117.00 85.50 0.00 -118.50 85.50 0.00 -120.00 85.50 0.00 -121.50 85.50 0.00 -123.00 85.50 0.00 -124.50 85.50 0.00 -126.00 85.50 0.00 -127.50 85.50 0.00 -129.00 85.50 0.00 -130.50 85.50 0.00 -132.00 85.50 0.00 -133.50 85.50 0.00 -135.00 85.50 0.00 -136.50 85.50 0.00 -138.00 85.50 0.00 -139.50 85.50 0.00 -141.00 85.50 0.00 -142.50 85.50 0.00 -144.00 85.50 0.00 -145.50 85.50 0.00 -147.00 85.50 0.00 -148.50 85.50 0.00 -150.00 85.50 0.00 -49.50 84.00 0.00 -51.00 84.00 0.00 -52.50 84.00 0.00 -54.00 84.00 0.00 -55.50 84.00 0.00 -57.00 84.00 0.00 -58.50 84.00 0.00 -60.00 84.00 0.00 -61.50 84.00 0.00 -63.00 84.00 0.00 -64.50 84.00 0.00 -66.00 84.00 0.00 -67.50 84.00 0.00 -69.00 84.00 0.00 -70.50 84.00 0.00 -72.00 84.00 0.00 -73.50 84.00 0.00 -75.00 84.00 0.00 -76.50 84.00 0.00 -78.00 84.00 0.00 -79.50 84.00 0.00 -81.00 84.00 0.00 -82.50 84.00 0.00 -84.00 84.00 0.00 -85.50 84.00 0.00 -87.00 84.00 0.00 -88.50 84.00 0.00 -90.00 84.00 0.00 -91.50 84.00 0.00 -93.00 84.00 0.00 -94.50 84.00 0.00 -96.00 84.00 0.00 -97.50 84.00 0.00 -99.00 84.00 0.00 -100.50 84.00 0.00 -102.00 84.00 0.00 -103.50 84.00 0.00 -105.00 84.00 0.00 -106.50 84.00 0.00 -108.00 84.00 0.00 -109.50 84.00 0.00 -111.00 84.00 0.00 -112.50 84.00 0.00 -114.00 84.00 0.00 -115.50 84.00 0.00 -117.00 84.00 0.00 -118.50 84.00 0.00 -120.00 84.00 0.00 -121.50 84.00 0.00 -123.00 84.00 0.00 -124.50 84.00 0.00 -126.00 84.00 0.00 -127.50 84.00 0.00 -129.00 84.00 0.00 -130.50 84.00 0.00 -132.00 84.00 0.00 -133.50 84.00 0.00 -135.00 84.00 0.00 -136.50 84.00 0.00 -138.00 84.00 0.00 -139.50 84.00 0.00 -141.00 84.00 0.00 -142.50 84.00 0.00 -144.00 84.00 0.00 -145.50 84.00 0.00 -147.00 84.00 0.00 -148.50 84.00 0.00 -150.00 84.00 0.00 -49.50 82.50 0.00 -51.00 82.50 0.00 -52.50 82.50 0.00 -54.00 82.50 0.00 -55.50 82.50 0.00 -57.00 82.50 0.00 -58.50 82.50 0.00 -60.00 82.50 0.00 -61.50 82.50 0.00 -63.00 82.50 0.00 -64.50 82.50 0.00 -66.00 82.50 0.00 -67.50 82.50 0.00 -69.00 82.50 0.00 -70.50 82.50 0.00 -72.00 82.50 0.00 -73.50 82.50 0.00 -75.00 82.50 0.00 -76.50 82.50 0.00 -78.00 82.50 0.00 -79.50 82.50 0.00 -81.00 82.50 0.00 -82.50 82.50 0.00 -84.00 82.50 0.00 -85.50 82.50 0.00 -87.00 82.50 0.00 -88.50 82.50 0.00 -90.00 82.50 0.00 -91.50 82.50 0.00 -93.00 82.50 0.00 -94.50 82.50 0.00 -96.00 82.50 0.00 -97.50 82.50 0.00 -99.00 82.50 0.00 -100.50 82.50 0.00 -102.00 82.50 0.00 -103.50 82.50 0.00 -105.00 82.50 0.00 -106.50 82.50 0.00 -108.00 82.50 0.00 -109.50 82.50 0.00 -111.00 82.50 0.00 -112.50 82.50 0.00 -114.00 82.50 0.00 -115.50 82.50 0.00 -117.00 82.50 0.00 -118.50 82.50 0.00 -120.00 82.50 0.00 -121.50 82.50 0.00 -123.00 82.50 0.00 -124.50 82.50 0.00 -126.00 82.50 0.00 -127.50 82.50 0.00 -129.00 82.50 0.00 -130.50 82.50 0.00 -132.00 82.50 0.00 -133.50 82.50 0.00 -135.00 82.50 0.00 -136.50 82.50 0.00 -138.00 82.50 0.00 -139.50 82.50 0.00 -141.00 82.50 0.00 -142.50 82.50 0.00 -144.00 82.50 0.00 -145.50 82.50 0.00 -147.00 82.50 0.00 -148.50 82.50 0.00 -150.00 82.50 0.00 -49.50 81.00 0.00 -51.00 81.00 0.00 -52.50 81.00 0.00 -54.00 81.00 0.00 -55.50 81.00 0.00 -57.00 81.00 0.00 -58.50 81.00 0.00 -60.00 81.00 0.00 -61.50 81.00 0.00 -63.00 81.00 0.00 -64.50 81.00 0.00 -66.00 81.00 0.00 -67.50 81.00 0.00 -69.00 81.00 0.00 -70.50 81.00 0.00 -72.00 81.00 0.00 -73.50 81.00 0.00 -75.00 81.00 0.00 -76.50 81.00 0.00 -78.00 81.00 0.00 -79.50 81.00 0.00 -81.00 81.00 0.00 -82.50 81.00 0.00 -84.00 81.00 0.00 -85.50 81.00 0.00 -87.00 81.00 0.00 -88.50 81.00 0.00 -90.00 81.00 0.00 -91.50 81.00 0.00 -93.00 81.00 0.00 -94.50 81.00 0.00 -96.00 81.00 0.00 -97.50 81.00 0.00 -99.00 81.00 0.00 -100.50 81.00 0.00 -102.00 81.00 0.00 -103.50 81.00 0.00 -105.00 81.00 0.00 -106.50 81.00 0.00 -108.00 81.00 0.00 -109.50 81.00 0.00 -111.00 81.00 0.00 -112.50 81.00 0.00 -114.00 81.00 0.00 -115.50 81.00 0.00 -117.00 81.00 0.00 -118.50 81.00 0.00 -120.00 81.00 0.00 -121.50 81.00 0.00 -123.00 81.00 0.00 -124.50 81.00 0.00 -126.00 81.00 0.00 -127.50 81.00 0.00 -129.00 81.00 0.00 -130.50 81.00 0.00 -132.00 81.00 0.00 -133.50 81.00 0.00 -135.00 81.00 0.00 -136.50 81.00 0.00 -138.00 81.00 0.00 -139.50 81.00 0.00 -141.00 81.00 0.00 -142.50 81.00 0.00 -144.00 81.00 0.00 -145.50 81.00 0.00 -147.00 81.00 0.00 -148.50 81.00 0.00 -150.00 81.00 0.00 -49.50 79.50 0.00 -51.00 79.50 0.00 -52.50 79.50 0.00 -54.00 79.50 0.00 -55.50 79.50 0.00 -57.00 79.50 0.00 -58.50 79.50 0.00 -60.00 79.50 0.00 -61.50 79.50 0.00 -63.00 79.50 0.00 -64.50 79.50 0.00 -66.00 79.50 0.00 -67.50 79.50 0.00 -69.00 79.50 0.00 -70.50 79.50 0.00 -72.00 79.50 0.00 -73.50 79.50 0.00 -75.00 79.50 0.00 -76.50 79.50 0.00 -78.00 79.50 0.00 -79.50 79.50 0.00 -81.00 79.50 0.00 -82.50 79.50 0.00 -84.00 79.50 0.00 -85.50 79.50 0.00 -87.00 79.50 0.00 -88.50 79.50 0.00 -90.00 79.50 0.00 -91.50 79.50 0.00 -93.00 79.50 0.00 -94.50 79.50 0.00 -96.00 79.50 0.00 -97.50 79.50 0.00 -99.00 79.50 0.00 -100.50 79.50 0.00 -102.00 79.50 0.00 -103.50 79.50 0.00 -105.00 79.50 0.00 -106.50 79.50 0.00 -108.00 79.50 0.00 -109.50 79.50 0.00 -111.00 79.50 0.00 -112.50 79.50 0.00 -114.00 79.50 0.00 -115.50 79.50 0.00 -117.00 79.50 0.00 -118.50 79.50 0.00 -120.00 79.50 0.00 -121.50 79.50 0.00 -123.00 79.50 0.00 -124.50 79.50 0.00 -126.00 79.50 0.00 -127.50 79.50 0.00 -129.00 79.50 0.00 -130.50 79.50 0.00 -132.00 79.50 0.00 -133.50 79.50 0.00 -135.00 79.50 0.00 -136.50 79.50 0.
[...]
POINT_DATA 4624
VECTORS meanWind float
3.66 -2.64 0.00 3.76 -2.49 0.00 3.81 -2.39 0.00 3.86 -2.34 0.00 3.96 -2.19 0.00 4.01 -2.14 0.00 4.01 -1.99 0.00 4.11 -1.89 0.00 4.16 -1.74 0.00 4.16 -1.69 0.00 4.26 -1.54 0.00 4.26 -1.44 0.00 4.31 -1.29 0.00 4.31 -1.24 0.00 4.41 -1.14 0.00 4.41 -0.99 0.00 4.41 -0.89 0.00 4.46 -0.74 0.00 4.46 -0.69 0.00 4.46 -0.54 0.00 4.51 -0.39 0.00 4.51 -0.29 0.00 4.51 -0.14 0.00 4.51 -0.04 0.00 4.51 0.06 0.00 4.51 0.16 0.00 4.51 0.31 0.00 4.51 0.41 0.00 4.46 0.56 0.00 4.46 0.66 0.00 4.46 0.76 0.00 4.41 0.86 0.00 4.41 1.01 0.00 4.36 1.11 0.00 4.36 1.21 0.00 4.31 1.31 0.00 4.26 1.46 0.00 4.26 1.61 0.00 4.21 1.66 0.00 4.16 1.81 0.00 4.06 1.91 0.00 4.01 2.01 0.00 4.01 2.11 0.00 3.96 2.21 0.00 3.91 2.31 0.00 3.81 2.41 0.00 3.76 2.51 0.00 3.66 2.61 0.00 3.61 2.71 0.00 3.56 2.81 0.00 3.46 2.91 0.00 3.41 2.96 0.00 3.31 3.06 0.00 3.21 3.16 0.00 3.16 3.26 0.00 3.06 3.31 0.00 2.96 3.41 0.00 2.86 3.46 0.00 2.81 3.51 0.00 2.66 3.61 0.00 2.61 3.66 0.00 2.51 3.76 0.00 2.41 3.81 0.00 2.31 3.86 0.00 2.21 3.96 0.00 2.11 4.01 0.00 1.96 4.06 0.00 1.86 4.06 0.00 1.86 -0.84 0.00 1.76 -0.74 0.00 1.76 -0.69 0.00 1.71 -0.64 0.00 1.71 -0.59 0.00 1.71 -0.49 0.00 1.61 -0.44 0.00 1.61 -0.39 0.00 1.66 -0.34 0.00 1.56 -0.29 0.00 1.56 -0.24 0.00 1.56 -0.24 0.00 1.56 -0.19 0.00 1.56 -0.14 0.00 1.56 -0.09 0.00 1.51 -0.04 0.00 1.51 0.01 0.00 1.51 0.06 0.00 1.51 0.11 0.00 1.51 0.16 0.00 1.51 0.21 0.00 1.56 0.26 0.00 1.56 0.21 0.00 1.56 0.31 0.00 1.51 0.36 0.00 1.56 0.41 0.00 1.56 0.41 0.00 1.56 0.46 0.00 1.61 0.56 0.00 1.61 0.56 0.00 1.66 0.61 0.00 1.66 0.71 0.00 1.71 0.71 0.00 1.71 0.81 0.00 1.76 0.86 0.00 1.76 0.91 0.00 1.71 1.01 0.00 1.81 1.06 0.00 1.81 1.06 0.00 1.76 1.16 0.00 1.81 1.26 0.00 1.81 1.31 0.00 1.81 1.36 0.00 1.81 1.46 0.00 1.86 1.56 0.00 1.86 1.56 0.00 1.81 1.66 0.00 1.86 1.71 0.00 1.86 1.81 0.00 1.86 1.86 0.00 1.81 1.96 0.00 1.86 2.01 0.00 1.86 2.06 0.00 1.76 2.11 0.00 1.81 2.21 0.00 1.76 2.26 0.00 1.76 2.31 0.00 1.71 2.36 0.00 1.76 2.41 0.00 1.71 2.51 0.00 1.66 2.56 0.00 1.66 2.61 0.00 1.61 2.66 0.00 1.61 2.76 0.00 1.61 2.76 0.00 1.56 2.81 0.00 1.51 2.81 0.00 1.46 2.91 0.00 -3.39 1.41 0.00 -3.54 1.36 0.00 -3.74 1.31 0.00 -3.89 1.26 0.00 -4.04 1.16 0.00 -4.14 1.11 0.00 -4.29 1.01 0.00 -4.39 0.96 0.00 -4.49 0.86 0.00 -4.54 0.76 0.00 -4.69 0.66 0.00 -4.69 0.56 0.00 -4.74 0.41 0.00 -4.79 0.36 0.00 -4.79 0.21 0.00 -4.79 0.11 0.00 -4.79 -0.04 0.00 -4.79 -0.09 0.00 -4.74 -0.24 0.00 -4.69 -0.29 0.00 -4.64 -0.44 0.00 -4.54 -0.54 0.00 -4.44 -0.59 0.00 -4.39 -0.69 0.00 -4.29 -0.79 0.00 -4.19 -0.84 0.00 -4.09 -0.94 0.00 -3.89 -0.94 0.00 -3.79 -1.04 0.00 -3.69 -1.04 0.00 -3.49 -1.09 0.00 -3.34 -1.04 0.00 -3.24 -1.14 0.00 -3.04 -1.09 0.00 -2.94 -1.09 0.00 -2.79 -1.04 0.00 -2.59 -1.04 0.00 -2.44 -0.99 0.00 -2.34 -0.94 0.00 -2.19 -0.84 0.00 -2.04 -0.84 0.00 -1.89 -0.79 0.00 -1.74 -0.69 0.00 -1.59 -0.59 0.00 -1.49 -0.59 0.00 -1.34 -0.44 0.00 -1.19 -0.39 0.00 -1.04 -0.24 0.00 -0.94 -0.19 0.00 -0.84 -0.09 0.00 -0.74 -0.04 0.00 -0.59 0.06 0.00 -0.49 0.16 0.00 -0.39 0.21 0.00 -0.29 0.36 0.00 -0.19 0.41 0.00 -0.14 0.46 0.00 0.01 0.51 0.00 0.06 0.56 0.00 0.16 0.66 0.00 0.21 0.71 0.00 0.36 0.81 0.00 0.46 0.91 0.00 0.51 0.96 0.00 0.61 1.01 0.00 0.66 1.06 0.00 0.76 1.11 0.00 0.86 1.21 0.00 -8.99 2.96 0.00 -9.29 2.81 0.00 -9.44 2.61 0.00 -9.69 2.41 0.00 -9.89 2.16 0.00 -10.04 1.91 0.00 -10.19 1.66 0.00 -10.29 1.41 0.00 -10.44 1.16 0.00 -10.49 0.91 0.00 -10.59 0.61 0.00 -10.59 0.41 0.00 -10.64 0.11 0.00 -10.59 -0.14 0.00 -10.54 -0.44 0.00 -10.54 -0.69 0.00 -10.49 -0.94 0.00 -10.39 -1.14 0.00 -10.39 -1.39 0.00 -10.19 -1.64 0.00 -10.14 -1.79 0.00 -9.94 -2.04 0.00 -9.84 -2.24 0.00 -9.69 -2.39 0.00 -9.54 -2.59 0.00 -9.34 -2.74 0.00 -9.09 -2.94 0.00 -8.89 -3.04 0.00 -8.74 -3.14 0.00 -8.49 -3.29 0.00 -8.29 -3.39 0.00 -8.04 -3.44 0.00 -7.79 -3.54 0.00 -7.54 -3.59 0.00 -7.29 -3.59 0.00 -7.04 -3.59 0.00 -6.79 -3.64 0.00 -6.54 -3.59 0.00 -6.29 -3.59 0.00 -6.09 -3.54 0.00 -5.84 -3.49 0.00 -5.59 -3.44 0.00 -5.39 -3.39 0.00 -5.14 -3.29 0.00 -4.89 -3.24 0.00 -4.64 -3.14 0.00 -4.44 -3.09 0.00 -4.24 -2.94 0.00 -3.99 -2.84 0.00 -3.79 -2.74 0.00 -3.54 -2.64 0.00 -3.29 -2.54 0.00 -3.09 -2.39 0.00 -2.89 -2.29 0.00 -2.69 -2.19 0.00 -2.44 -2.09 0.00 -2.19 -1.99 0.00 -1.99 -1.89 0.00 -1.79 -1.79 0.00 -1.54 -1.69 0.00 -1.34 -1.64 0.00 -1.09 -1.49 0.00 -0.94 -1.44 0.00 -0.69 -1.34 0.00 -0.49 -1.29 0.00 -0.29 -1.19 0.00 -0.09 -1.09 0.00 0.11 -1.04 0.00 -12.24 3.86 0.00 -12.39 3.51 0.00 -12.59 3.21 0.00 -12.79 2.81 0.00 -12.89 2.51 0.00 -13.04 2.16 0.00 -13.09 1.81 0.00 -13.19 1.46 0.00 -13.24 1.11 0.00 -13.19 0.76 0.00 -13.19 0.41 0.00 -13.14 0.11 0.00 -13.14 -0.24 0.00 -13.04 -0.59 0.00 -12.99 -0.89 0.00 -12.89 -1.19 0.00 -12.84 -1.49 0.00 -12.69 -1.79 0.00 -12.64 -2.04 0.00 -12.49 -2.34 0.00 -12.39 -2.59 0.00 -12.24 -2.84 0.00 -12.14 -3.14 0.00 -12.04 -3.39 0.00 -11.84 -3.59 0.00 -11.69 -3.84 0.00 -11.54 -4.04 0.00 -11.34 -4.24 0.00 -11.14 -4.49 0.00 -10.94 -4.64 0.00 -10.74 -4.84 0.00 -10.54 -4.94 0.00 -10.29 -5.09 0.00 -10.04 -5.19 0.00 -9.84 -5.29 0.00 -9.59 -5.39 0.00 -9.34 -5.49 0.00 -9.14 -5.54 0.00 -8.89 -5.59 0.00 -8.59 -5.59 0.00 -8.39 -5.59 0.00 -8.14 -5.59 0.00 -7.89 -5.59 0.00 -7.64 -5.59 0.00 -7.39 -5.54 0.00 -7.09 -5.49 0.00 -6.84 -5.49 0.00 -6.59 -5.34 0.00 -6.29 -5.34 0.00 -5.99 -5.19 0.00 -5.74 -5.09 0.00 -5.39 -5.04 0.00 -5.14 -4.89 0.00 -4.79 -4.79 0.00 -4.49 -4.74 0.00 -4.19 -4.59 0.00 -3.84 -4.49 0.00 -3.54 -4.34 0.00 -3.19 -4.24 0.00 -2.84 -4.14 0.00 -2.54 -4.04 0.00 -2.19 -3.94 0.00 -1.89 -3.89 0.00 -1.59 -3.74 0.00 -1.29 -3.64 0.00 -0.94 -3.49 0.00 -0.64 -3.44 0.00 -0.34 -3.29 0.00 -12.74 3.71 0.00 -12.84 3.36 0.00 -12.94 3.01 0.00 -12.99 2.66 0.00 -12.99 2.31 0.00 -13.04 2.01 0.00 -13.04 1.66 0.00 -12.99 1.36 0.00 -12.94 1.06 0.00 -12.84 0.81 0.00 -12.74 0.51 0.00 -12.64 0.21 0.00 -12.54 -0.09 0.00 -12.49 -0.34 0.00 -12.34 -0.64 0.00 -12.29 -0.89 0.00 -12.19 -1.19 0.00 -12.04 -1.44 0.00 -11.94 -1.74 0.00 -11.89 -2.04 0.00 -11.79 -2.29 0.00 -11.69 -2.59 0.00 -11.59 -2.89 0.00 -11.49 -3.14 0.00 -11.39 -3.39 0.00 -11.24 -3.69 0.00 -11.14 -3.99 0.00 -11.04 -4.24 0.00 -10.84 -4.44 0.00 -10.69 -4.64 0.00 -10.49 -4.89 0.00 -10.34 -5.09 0.00 -10.19 -5.29 0.00 -9.99 -5.44 0.00 -9.79 -5.64 0.00 -9.54 -5.74 0.00 -9.34 -5.89 0.00 -9.14 -6.04 0.00 -8.94 -6.19 0.00 -8.74 -6.29 0.00 -8.54 -6.44 0.00 -8.29 -6.59 0.00 -8.14 -6.64 0.00 -7.94 -6.69 0.00 -7.69 -6.84 0.00 -7.49 -6.89 0.00 -7.24 -6.94 0.00 -6.99 -6.94 0.00 -6.69 -6.99 0.00 -6.44 -6.99 0.00 -6.14 -6.94 0.00 -5.84 -6.89 0.00 -5.54 -6.84 0.00 -5.19 -6.79 0.00 -4.89 -6.69 0.00 -4.54 -6.59 0.00 -4.24 -6.54 0.00 -3.84 -6.39 0.00 -3.49 -6.34 0.00 -3.09 -6.19 0.00 -2.79 -6.14 0.00 -2.39 -5.99 0.00 -1.99 -5.94 0.00 -1.69 -5.84 0.00 -1.29 -5.69 0.00 -0.99 -5.59 0.00 -0.64 -5.39 0.00 -0.34 -5.24 0.00 -12.44 2.71 0.00 -12.39 2.46 0.00 -12.34 2.16 0.00 -12.24 1.91 0.00 -12.19 1.71 0.00 -12.04 1.51 0.00 -11.89 1.36 0.00 -11.74 1.21 0.00 -11.59 1.01 0.00 -11.39 0.91 0.00 -11.24 0.71 0.00 -11.04 0.61 0.00 -10.94 0.41 0.00 -10.79 0.26 0.00 -10.69 0.06 0.00 -10.59 -0.14 0.00 -10.39 -0.39 0.00 -10.29 -0.69 0.00 -10.14 -0.94 0.00 -9.94 -1.29 0.00 -9.79 -1.64 0.00 -9.59 -1.89 0.00 -9.44 -2.29 0.00 -9.29 -2.59 0.00 -9.14 -2.89 0.00 -9.04 -3.19 0.00 -8.94 -3.44 0.00 -8.84 -3.69 0.00 -8.69 -3.99 0.00 -8.54 -4.19 0.00 -8.44 -4.39 0.00 -8.19 -4.59 0.00 -8.09 -4.79 0.00 -7.89 -4.94 0.00 -7.69 -5.19 0.00 -7.49 -5.39 0.00 -7.34 -5.64 0.00 -7.14 -5.79 0.00 -7.04 -6.04 0.00 -6.84 -6.19 0.00 -6.74 -6.44 0.00 -6.59 -6.69 0.00 -6.49 -6.94 0.00 -6.34 -7.09 0.00 -6.19 -7.29 0.00 -6.04 -7.44 0.00 -5.84 -7.64 0.00 -5.69 -7.74 0.00 -5.49 -7.84 0.00 -5.24 -7.94 0.00 -4.99 -7.99 0.00 -4.74 -8.04 0.00 -4.49 -7.99 0.00 -4.19 -7.99 0.00 -3.99 -7.99 0.00 -3.69 -7.94 0.00 -3.39 -7.89 0.00 -3.09 -7.79 0.00 -2.74 -7.74 0.00 -2.44 -7.64 0.00 -2.09 -7.59 0.00 -1.74 -7.54 0.00 -1.44 -7.49 0.00 -1.04 -7.34 0.00 -0.74 -7.24 0.00 -0.34 -7.14 0.00 -0.04 -6.99 0.00 0.26 -6.79 0.00 -10.94 1.66 0.00 -10.89 1.41 0.00 -10.74 1.21 0.00 -10.59 1.11 0.00 -10.39 0.96 0.00 -10.24 0.86 0.00 -9.94 0.81 0.00 -9.64 0.71 0.00 -9.39 0.61 0.00 -9.04 0.51 0.00 -8.74 0.41 0.00 -8.49 0.21 0.00 -8.24 0.06 0.00 -8.04 -0.09 0.00 -7.84 -0.34 0.00 -7.64 -0.49 0.00 -7.44 -0.69 0.00 -7.24 -0.94 0.00 -6.99 -1.19 0.00 -6.74 -1.44 0.00 -6.54 -1.79 0.00 -6.29 -1.99 0.00 -6.09 -2.24 0.00 -5.94 -2.54 0.00 -5.79 -2.74 0.00 -5.64 -2.94 0.00 -5.49 -3.14 0.00 -5.44 -3.24 0.00 -5.34 -3.44 0.00 -5.19 -3.54 0.00 -5.09 -3.69 0.00 -4.94 -3.84 0.00 -4.84 -4.09 0.00 -4.74 -4.24 0.00 -4.59 -4.49 0.00 -4.49 -4.74 0.00 -4.44 -5.04 0.00 -4.29 -5.29 0.00 -4.24 -5.64 0.00 -4.19 -5.89 0.00 -4.14 -6.19 0.00 -4.04 -6.49 0.00 -3.94 -6.79 0.00 -3.84 -7.04 0.00 -3.64 -7.29 0.00 -3.49 -7.49 0.00 -3.34 -7.74 0.00 -3.14 -7.84 0.00 -2.99 -8.04 0.00 -2.79 -8.19 0.00 -2.64 -8.24 0.00 -2.44 -8.29 0.00 -2.24 -8.34 0.00 -2.04 -8.34 0.00 -1.84 -8.39 0.00 -1.59 -8.34 0.00 -1.39 -8.34 0.00 -1.09 -8.34 0.00 -0.84 -8.29 0.00 -0.59 -8.29 0.00 -0.29 -8.24 0.00 -0.04 -8.19 0.00 0.26 -8.19 0.00 0.61 -8.09 0.00 0.91 -7.99 0.00 1.21 -7.84 0.00 1.51 -7.69 0.00 1.76 -7.44 0.00 -8.59 0.66 0.00 -8.39 0.56 0.00 -8.24 0.36 0.00 -7.94 0.26 0.00 -7.69 0.16 0.00 -7.34 0.11 0.00 -6.94 0.01 0.00 -6.59 -0.09 0.00 -6.19 -0.24 0.00 -5.84 -0.39 0.00 -5.49 -0.59 0.00 -5.19 -0.74 0.00 -4.84 -0.99 0.00 -4.59 -1.19 0.00 -4.34 -1.39 0.00 -4.04 -1.59 0.00 -3.84 -1.79 0.00 -3.59 -1.94 0.00 -3.39 -2.09 0.00 -3.19 -2.24 0.00 -2.99 -2.34 0.00 -2.79 -2.49 0.00 -2.69 -2.59 0.00 -2.54 -2.64 0.00 -2.49 -2.74 0.00 -2.44 -2.79 0.00 -2.34 -2.79 0.00 -2.34 -2.84 0.00 -2.29 -2.89 0.00 -2.24 -2.94 0.00 -2.24 -3.09 0.00 -2.19 -3.29 0.00 -2.14 -3.49 0.00 -2.09 -3.74 0.00 -2.04 -4.04 0.00 -1.99 -4.29 0.00 -1.94 -4.64 0.00 -1.84 -4.94 0.00 -1.84 -5.29 0.00 -1.74 -5.64 0.00 -1.64 -5.99 0.00 -1.54 -6.24 0.00 -1.44 -6.64 0.00 -1.29 -6.89 0.00 -1.14 -7.19 0.00 -0.99 -7.44 0.00 -0.79 -7.69 0.00 -0.64 -7.89 0.00 -0.49 -8.09 0.00 -0.29 -8.24 0.00 -0.09 -8.39 0.00 0.11 -8.49 0.00 0.26 -8.54 0.00 0.51 -8.59 0.00 0.66 -8.59 0.00 0.91 -8.59 0.00 1.11 -8.59 0.00 1.36 -8.59 0.00 1.56 -8.59 0.00 1.76 -8.54 0.00 1.96 -8.49 0.00 2.16 -8.44 0.00 2.36 -8.29 0.00 2.56 -8.19 0.00 2.76 -8.04 0.00 2.96 -7.74 0.00 3.11 -7.49 0.00 3.26 -7.09 0.00 -5.09 -1.19 0.00 -4.79 -1.29 0.00 -4.49 -1.34 0.00 -4.09 -1.29 0.00 -3.69 -1.24 0.00 -3.39 -1.09 0.00 -3.09 -1.09 0.00 -2.84 -1.09 0.00 -2.54 -1.19 0.00 -2.29 -1.24 0.00 -1.94 -1.44 0.00 -1.69 -1.64 0.00 -1.39 -1.89 0.00 -1.04 -2.09 0.00 -0.79 -2.29 0.00 -0.49 -2.39 0.00 -0.29 -2.59 0.00 -0.09 -2.59 0.00 0.01 -2.64 0.00 0.16 -2.59 0.00 0.21 -2.59 0.00 0.31 -2.59 0.00 0.41 -2.59 0.00 0.46 -2.64 0.00 0.56 -2.74 0.00 0.61 -2.74 0.00 0.61 -2.79 0.00 0.66 -2.84 0.00 0.66 -2.94 0.00 0.66 -3.04 0.00 0.71 -3.14 0.00 0.76 -3.29 0.00 0.86 -3.44 0.00 0.91 -3.64 0.00 0.91 -3.94 0.00 0.96 -4.14 0.00 1.01 -4.44 0.00 1.01 -4.69 0.00 1.01 -4.99 0.00 1.01 -5.29 0.00 1.01 -5.64 0.00 1.06 -5.99 0.00 1.06 -6.29 0.00 1.11 -6.64 0.00 1.21 -6.99 0.00 1.26 -7.34 0.00 1.36 -7.64 0.00 1.46 -7.94 0.00 1.56 -8.19 0.00 1.66 -8.39 0.00 1.81 -8.54 0.00 2.01 -8.69 0.00 2.11 -8.79 0.00 2.31 -8.84 0.00 2.51 -8.89 0.00 2.71 -8.79 0.00 2.86 -8.74 0.00 3.01 -8.69 0.00 3.16 -8.54 0.00 3.26 -8.34 0.00 3.36 -8.14 0.00 3.41 -7.84 0.00 3.46 -7.59 0.00 3.46 -7.24 0.00 3.46 -6.89 0.00 3.41 -6.49 0.00 3.36 -5.99 0.00 3.31 -5.54 0.00 -1.59 -2.34 0.00 -1.34 -2.34 0.00 -1.09 -2.24 0.00 -0.84 -2.09 0.00 -0.64 -1.89 0.00 -0.54 -1.84 0.00 -0.34 -1.84 0.00 -0.19 -1.89 0.00 -0.04 -2.04 0.00 0.26 -2.29 0.00 0.61 -2.54 0.00 0.96 -2.79 0.00 1.41 -3.04 0.00 1.76 -3.14 0.00 2.11 -3.24 0.00 2.51 -3.29 0.00 2.71 -3.29 0.00 2.96 -3.19 0.00 3.11 -3.19 0.00 3.21 -3.14 0.00 3.41 -3.19 0.00 3.56 -3.14 0.00 3.81 -3.24 0.00 3.96 -3.24 0.00 4.16 -3.34 0.00 4.31 -3.29 0.00 4.36 -3.39 0.00 4.46 -3.34 0.00 4.51 -3.29 0.00 4.51 -3.34 0.00 4.51 -3.34 0.00 4.41 -3.34 0.00 4.31 -3.39 0.00 4.16 -3.44 0.00 4.01 -3.54 0.00 3.81 -3.69 0.00 3.66 -3.89 0.00 3.46 -4.09 0.00 3.26 -4.34 0.00 3.11 -4.64 0.00 2.96 -4.99 0.00 2.96 -5.34 0.00 2.86 -5.74 0.00 2.91 -6.19 0.00 2.86 -6.54 0.00 2.91 -6.99 0.00 2.96 -7.34 0.00 3.01 -7.69 0.00 3.06 -8.04 0.00 3.16 -8.24 0.00 3.31 -8.44 0.00 3.41 -8.64 0.00 3.51 -8.74 0.00 3.71 -8.74 0.00 3.81 -8.74 0.00 3.91 -8.59 0.00 4.06 -8.39 0.00 4.06 -8.19 0.00 4.11 -7.84 0.00 4.11 -7.49 0.00 4.06 -7.09 0.00 4.01 -6.59 0.00 3.91 -6.14 0.00 3.81 -5.64 0.00 3.71 -5.19 0.00 3.56 -4.69 0.00 3.41 -4.24 0.00 3.36 -3.79 0.00 1.86 -1.74 0.00 1.86 -1.74 0.00 1.81 -1.64 0.00 1.76 -1.54 0.00 1.76 -1.64 0.00 1.86 -1.69 0.00 1.96 -1.99 0.00 2.16 -2.24 0.00 2.46 -2.69 0.00 2.86 -3.04 0.00 3.31 -3.44 0.00 3.81 -3.74 0.00 4.26 -4.04 0.00 4.71 -4.14 0.00 5.06 -4.29 0.00 5.36 -4.34 0.00 5.61 -4.34 0.00 5.91 -4.39 0.00 6.16 -4.49 0.00 6.51 -4.59 0.00 6.86 -4.69 0.00 7.21 -4.69 0.00 7.51 -4.69 0.00 7.76 -4.59 0.00 7.91 -4.39 0.00 8.01 -4.14 0.00 7.96 -3.89 0.00 7.86 -3.59 0.00 7.66 -3.29 0.00 7.41 -2.99 0.00 7.11 -2.74 0.00 6.81 -2.49 0.00 6.46 -2.34 0.00 6.06 -2.24 0.00 5.66 -2.19 0.00 5.26 -2.19 0.00 4.81 -2.34 0.00 4.46 -2.59 0.00 4.16 -2.94 0.00 3.86 -3.39 0.00 3.66 -3.94 0.00 3.56 -4.49 0.00 3.51 -5.09 0.00 3.61 -5.64 0.00 3.66 -6.24 0.00 3.81 -6.69 0.00 4.01 -7.14 0.00 4.21 -7.44 0.00 4.46 -7.74 0.00 4.71 -7.99 0.00 4.96 -8.09 0.00 5.21 -8.19 0.00 5.41 -8.19 0.00 5.61 -8.14 0.00 5.76 -7.99 0.00 5.86 -7.79 0.00 5.96 -7.49 0.00 6.01 -7.09 0.00 6.06 -6.69 0.00 6.06 -6.19 0.00 5.96 -5.74 0.00 5.91 -5.24 0.00 5.81 -4.74 0.00 5.76 -4.29 0.00 5.71 -3.94 0.00 5.71 -3.59 0.00 5.76 -3.29 0.00 5.76 -3.09 0.00 3.96 -1.09 0.00 3.71 -1.19 0.00 3.61 -1.29 0.00 3.51 -1.49 0.00 3.61 -1.79 0.00 3.76 -2.04 0.00 4.06 -2.49 0.00 4.46 -2.94 0.00 4.91 -3.54 0.00 5.46 -4.04 0.00 6.01 -4.59 0.00 6.56 -4.94 0.00 7.01 -5.24 0.00 7.41 -5.44 0.00 7.71 -5.59 0.00 8.11 -5.69 0.00 8.51 -5.79 0.00 8.96 -5.89 0.00 9.41 -5.99 0.00 9.81 -6.04 0.00 10.16 -6.04 0.00 10.46 -5.84 0.00 10.66 -5.59 0.00 10.76 -5.19 0.00 10.71 -4.74 0.00 10.56 -4.19 0.00 10.36 -3.64 0.00 10.01 -3.14 0.00 9.71 -2.64 0.00 9.41 -2.19 0.00 9.11 -1.79 0.00 8.76 -1.39 0.00 8.46 -1.09 0.00 8.16 -0.84 0.00 7.76 -0.69 0.00 7.41 -0.64 0.00 7.01 -0.74 0.00 6.71 -0.99 0.00 6.31 -1.44 0.00 6.01 -2.04 0.00 5.76 -2.74 0.00 5.56 -3.54 0.00 5.51 -4.39 0.00 5.56 -5.24 0.00 5.71 -6.04 0.00 5.96 -6.64 0.00 6.31 -7.14 0.00 6.61 -7.54 0.00 7.01 -7.84 0.00 7.31 -7.94 0.00 7.66 -8.09 0.00 7.91 -8.04 0.00 8.16 -7.94 0.00 8.41 -7.79 0.00 8.56 -7.54 0.00 8.71 -7.19 0.00 8.86 -6.79 0.00 8.91 -6.34 0.00 9.01 -5.84 0.00 8.96 -5.34 0.00 8.96 -4.84 0.00 8.96 -4.39 0.00 8.91 -4.04 0.00 8.96 -3.69 0.00 9.01 -3.39 0.00 9.06 -3.24 0.00 9.16 -3.09 0.00 9.26 -2.99 0.00 4.66 -0.69 0.00 4.56 -1.09 0.00 4.56 -1.49 0.00 4.71 -1.94 0.00 5.01 -2.49 0.00 5.51 -3.04 0.00 6.06 -3.69 0.00 6.71 -4.29 0.00 7.36 -4.89 0.00 7.96 -5.39 0.00 8.61 -5.89 0.00 9.16 -6.24 0.00 9.71 -6.49 0.00 10.26 -6.69 0.00 10.76 -6.79 0.00 11.31 -6.84 0.00 11.81 -6.84 0.00 12.21 -6.79 0.00 12.56 -6.64 0.00 12.76 -6.39 0.00 12.91 -6.09 0.00 13.01 -5.79 0.00 13.06 -5.34 0.00 13.06 -4.84 0.00 12.86 -4.34 0.00 12.66 -3.79 0.00 12.36 -3.24 0.00 12.11 -2.79 0.00 11.81 -2.34 0.00 11.71 -1.89 0.00 11.51 -1.44 0.00 11.36 -1.04 0.00 11.21 -0.64 0.00 11.01 -0.29 0.00 10.86 -0.14 0.00 10.71 -0.09 0.00 10.56 -0.14 0.00 10.36 -0.34 0.00 10.21 -0.74 0.00 9.96 -1.24 0.00 9.81 -1.89 0.00 9.61 -2.74 0.00 9.41 -3.64 0.00 9.36 -4.64 0.00 9.36 -5.59 0.00 9.41 -6.39 0.00 9.56 -7.09 0.00 9.76 -7.64 0.00 10.01 -7.99 0.00 10.31 -8.14 0.00 10.56 -8.24 0.00 10.76 -8.19 0.00 11.01 -8.04 0.00 11.16 -7.74 0.00 11.26 -7.39 0.00 11.31 -6.99 0.00 11.36 -6.49 0.00 11.41 -5.94 0.00 11.36 -5.49 0.00 11.31 -5.04 0.00 11.26 -4.64 0.00 11.31 -4.34 0.00 11.31 -4.04 0.00 11.31 -3.84 0.00 11.36 -3.64 0.00 11.51 -3.54 0.00 11.71 -3.44 0.00 11.96 -3.34 0.00 5.41 -0.59 0.00 5.46 -1.49 0.00 5.66 -2.29 0.00 6.11 -3.09 0.00 6.76 -3.84 0.00 7.56 -4.59 0.00 8.31 -5.34 0.00 9.11 -6.04 0.00 9.81 -6.69 0.00 10.56 -7.14 0.00 11.31 -7.54 0.00 12.01 -7.79 0.00 12.76 -7.89 0.00 13.46 -7.84 0.00 14.01 -7.84 0.00 14.51 -7.59 0.00 14.86 -7.29 0.00 15.06 -6.94 0.00 15.16 -6.59 0.00 15.21 -6.14 0.00 15.26 -5.79 0.00 15.31 -5.34 0.00 15.26 -4.89 0.00 15.21 -4.49 0.00 14.96 -3.99 0.00 14.71 -3.49 0.00 14.41 -2.99 0.00 14.16 -2.49 0.00 13.91 -1.94 0.00 13.71 -1.44 0.00 13.51 -0.94 0.00 13.31 -0.49 0.00 13.01 -0.09 0.00 12.86 0.16 0.00 12.71 0.26 0.00 12.66 0.16 0.00 12.71 -0.04 0.00 12.81 -0.34 0.00 12.91 -0.79 0.00 13.01 -1.19 0.00 13.01 -1.74 0.00 12.96 -2.44 0.00 12.81 -3.24 0.00 12.71 -4.14 0.00 12.56 -5.04 0.00 12.51 -5.94 0.00 12.46 -6.69 0.00 12.46 -7.34 0.00 12.56 -7.79 0.00 12.66 -8.14 0.00 12.76 -8.19 0.00 12.81 -8.19 0.00 12.91 -7.94 0.00 12.96 -7.59 0.00 12.96 -7.19 0.00 13.01 -6.74 0.00 13.01 -6.24 0.00 13.01 -5.69 0.00 12.96 -5.19 0.00 12.96 -4.74 0.00 12.86 -4.29 0.00 12.76 -3.99 0.00 12.66 -3.79 0.00 12.61 -3.69 0.00 12.66 -3.84 0.00 12.86 -4.04 0.00 13.26 -4.19 0.00 13.81 -4.39 0.00 6.16 -1.34 0.00 6.46 -2.59 0.00 6.96 -3.79 0.00 7.71 -4.84 0.00 8.61 -5.79 0.00 9.56 -6.69 0.00 10.46 -7.49 0.00 11.31 -8.14 0.00 12.21 -8.79 0.00 13.16 -9.24 0.00 14.06 -9.49 0.00 14.96 -9.44 0.00 15.56 -9.19 0.00 16.06 -8.84 0.00 16.46 -8.39 0.00 16.76 -7.89 0.00 17.06 -7.44 0.00 17.26 -6.89 0.00 17.46 -6.29 0.00 17.51 -5.79 0.00 17.46 -5.24 0.00 17.31 -4.74 0.00 17.11 -4.19 0.00 16.81 -3.69 0.00 16.46 -3.14 0.00 16.11 -2.54 0.00 15.76 -2.04 0.00 15.46 -1.44 0.00 15.16 -0.94 0.00 14.86 -0.44 0.00 14.56 0.01 0.00 14.26 0.36 0.00 13.96 0.66 0.00 13.66 0.71 0.00 13.56 0.56 0.00 13.56 0.26 0.00 13.76 -0.24 0.00 14.06 -0.79 0.00 14.46 -1.44 0.00 14.86 -1.99 0.00 15.21 -2.59 0.00 15.41 -3.14 0.00 15.56 -3.79 0.00 15.66 -4.44 0.00 15.66 -5.04 0.00 15.61 -5.69 0.00 15.51 -6.19 0.00 15.41 -6.64 0.00 15.16 -6.94 0.00 15.01 -7.14 0.00 14.86 -7.19 0.00 14.66 -7.04 0.00 14.51 -6.84 0.00 14.46 -6.54 0.00 14.36 -6.19 0.00 14.31 -5.74 0.00 14.26 -5.24 0.00 14.26 -4.69 0.00 14.16 -4.14 0.00 14.11 -3.59 0.00 13.96 -3.14 0.00 13.81 -2.84 0.00 13.71 -2.89 0.00 13.66 -3.24 0.00 13.76 -3.84 0.00 14.16 -4.49 0.00 14.81 -5.29 0.00 15.61 -6.14 0.00 7.56 -2.24 0.00 8.06 -3.84 0.00 8.71 -5.39 0.00 9.71 -6.74 0.00 10.76 -7.94 0.00 11.81 -8.94 0.00 12.81 -9.84 0.00 13.86 -10.44 0.00 14.81 -10.89 0.00 15.76 -11.09 0.00 16.56 -10.94 0.00 17.11 -10.64 0.00 17.56 -10.09 0.00 17.91 -9.44 0.00 18.26 -8.84 0.00 18.71 -8.24 0.00 19.16 -7.64 0.00 19.51 -6.89 0.00 19.66 -6.19 0.00 19.61 -5.39 0.00 19.36 -4.59 0.00 18.91 -3.89 0.00 18.46 -3.14 0.00 17.96 -2.49 0.00 17.46 -1.84 0.00 17.06 -1.24 0.00 16.66 -0.69 0.00 16.31 -0.19 0.00 16.06 0.21 0.00 15.76 0.61 0.00 15.51 0.86 0.00 15.21 1.06 0.00 14.91 1.11 0.00 14.71 1.01 0.00 14.61 0.66 0.00 14.61 0.16 0.00 14.81 -0.64 0.00 15.16 -1.39 0.00 15.61 -2.24 0.00 16.16 -2.89 0.00 16.66 -3.49 0.00 17.16 -3.94 0.00 17.51 -4.39 0.00 17.76 -4.79 0.00 17.86 -5.14 0.00 17.81 -5.54 0.00 17.76 -5.84 0.00 17.61 -5.99 0.00 17.41 -5.94 0.00 17.01 -5.89 0.00 16.66 -5.74 0.00 16.21 -5.54 0.00 15.86 -5.44 0.00 15.56 -5.24 0.00 15.36 -4.99 0.00 15.11 -4.64 0.00 14.91 -4.24 0.00 14.61 -3.74 0.00 14.46 -3.24 0.00 14.31 -2.69 0.00 14.26 -2.34 0.00 14.21 -2.29 0.00 14.26 -2.74 0.00 14.41 -3.54 0.00 14.86 -4.69 0.00 15.56 -5.99 0.00 16.46 -7.29 0.00 17.46 -8.54 0.00 9.91 -3.04 0.00 10.36 -5.19 0.00 11.11 -7.19 0.00 12.16 -8.84 0.00 13.16 -10.24 0.00 14.26 -11.29 0.00 15.26 -11.99 0.00 16.21 -12.44 0.00 17.01 -12.59 0.00 17.71 -12.44 0.00 18.31 -12.09 0.00 18.81 -11.54 0.00 19.26 -10.89 0.00 19.71 -10.29 0.00 20.21 -9.54 0.00 20.71 -8.79 0.00 21.21 -7.89 0.00 21.51 -6.84 0.00 21.51 -5.69 0.00 21.21 -4.49 0.00 20.61 -3.34 0.00 19.81 -2.34 0.00 19.06 -1.54 0.00 18.31 -0.84 0.00 17.61 -0.34 0.00 17.06 0.11 0.00 16.51 0.51 0.00 16.16 0.86 0.00 15.86 1.06 0.00 15.51 1.31 0.00 15.31 1.51 0.00 15.06 1.56 0.00 14.81 1.51 0.00 14.71 1.26 0.00 14.61 0.76 0.00 14.66 0.11 0.00 14.76 -0.79 0.00 14.91 -1.69 0.00 15.31 -2.54 0.00 15.76 -3.24 0.00 16.26 -3.84 0.00 16.71 -4.19 0.00 17.06 -4.49 0.00 17.26 -4.69 0.00 17.36 -4.89 0.00 17.26 -5.09 0.00 17.21 -5.24 0.00 17.06 -5.34 0.00 16.81 -5.29 0.00 16.46 -5.09 0.00 16.01 -4.94 0.0