# vtk DataFile Version 2.0
VTK from Matlab
ASCII
DATASET STRUCTURED_GRID
DIMENSIONS 68 68 1
POINTS 4624 float
-49.50 90.00 0.00 -51.00 90.00 0.00 -52.50 90.00 0.00 -54.00 90.00 0.00 -55.50 90.00 0.00 -57.00 90.00 0.00 -58.50 90.00 0.00 -60.00 90.00 0.00 -61.50 90.00 0.00 -63.00 90.00 0.00 -64.50 90.00 0.00 -66.00 90.00 0.00 -67.50 90.00 0.00 -69.00 90.00 0.00 -70.50 90.00 0.00 -72.00 90.00 0.00 -73.50 90.00 0.00 -75.00 90.00 0.00 -76.50 90.00 0.00 -78.00 90.00 0.00 -79.50 90.00 0.00 -81.00 90.00 0.00 -82.50 90.00 0.00 -84.00 90.00 0.00 -85.50 90.00 0.00 -87.00 90.00 0.00 -88.50 90.00 0.00 -90.00 90.00 0.00 -91.50 90.00 0.00 -93.00 90.00 0.00 -94.50 90.00 0.00 -96.00 90.00 0.00 -97.50 90.00 0.00 -99.00 90.00 0.00 -100.50 90.00 0.00 -102.00 90.00 0.00 -103.50 90.00 0.00 -105.00 90.00 0.00 -106.50 90.00 0.00 -108.00 90.00 0.00 -109.50 90.00 0.00 -111.00 90.00 0.00 -112.50 90.00 0.00 -114.00 90.00 0.00 -115.50 90.00 0.00 -117.00 90.00 0.00 -118.50 90.00 0.00 -120.00 90.00 0.00 -121.50 90.00 0.00 -123.00 90.00 0.00 -124.50 90.00 0.00 -126.00 90.00 0.00 -127.50 90.00 0.00 -129.00 90.00 0.00 -130.50 90.00 0.00 -132.00 90.00 0.00 -133.50 90.00 0.00 -135.00 90.00 0.00 -136.50 90.00 0.00 -138.00 90.00 0.00 -139.50 90.00 0.00 -141.00 90.00 0.00 -142.50 90.00 0.00 -144.00 90.00 0.00 -145.50 90.00 0.00 -147.00 90.00 0.00 -148.50 90.00 0.00 -150.00 90.00 0.00 -49.50 88.50 0.00 -51.00 88.50 0.00 -52.50 88.50 0.00 -54.00 88.50 0.00 -55.50 88.50 0.00 -57.00 88.50 0.00 -58.50 88.50 0.00 -60.00 88.50 0.00 -61.50 88.50 0.00 -63.00 88.50 0.00 -64.50 88.50 0.00 -66.00 88.50 0.00 -67.50 88.50 0.00 -69.00 88.50 0.00 -70.50 88.50 0.00 -72.00 88.50 0.00 -73.50 88.50 0.00 -75.00 88.50 0.00 -76.50 88.50 0.00 -78.00 88.50 0.00 -79.50 88.50 0.00 -81.00 88.50 0.00 -82.50 88.50 0.00 -84.00 88.50 0.00 -85.50 88.50 0.00 -87.00 88.50 0.00 -88.50 88.50 0.00 -90.00 88.50 0.00 -91.50 88.50 0.00 -93.00 88.50 0.00 -94.50 88.50 0.00 -96.00 88.50 0.00 -97.50 88.50 0.00 -99.00 88.50 0.00 -100.50 88.50 0.00 -102.00 88.50 0.00 -103.50 88.50 0.00 -105.00 88.50 0.00 -106.50 88.50 0.00 -108.00 88.50 0.00 -109.50 88.50 0.00 -111.00 88.50 0.00 -112.50 88.50 0.00 -114.00 88.50 0.00 -115.50 88.50 0.00 -117.00 88.50 0.00 -118.50 88.50 0.00 -120.00 88.50 0.00 -121.50 88.50 0.00 -123.00 88.50 0.00 -124.50 88.50 0.00 -126.00 88.50 0.00 -127.50 88.50 0.00 -129.00 88.50 0.00 -130.50 88.50 0.00 -132.00 88.50 0.00 -133.50 88.50 0.00 -135.00 88.50 0.00 -136.50 88.50 0.00 -138.00 88.50 0.00 -139.50 88.50 0.00 -141.00 88.50 0.00 -142.50 88.50 0.00 -144.00 88.50 0.00 -145.50 88.50 0.00 -147.00 88.50 0.00 -148.50 88.50 0.00 -150.00 88.50 0.00 -49.50 87.00 0.00 -51.00 87.00 0.00 -52.50 87.00 0.00 -54.00 87.00 0.00 -55.50 87.00 0.00 -57.00 87.00 0.00 -58.50 87.00 0.00 -60.00 87.00 0.00 -61.50 87.00 0.00 -63.00 87.00 0.00 -64.50 87.00 0.00 -66.00 87.00 0.00 -67.50 87.00 0.00 -69.00 87.00 0.00 -70.50 87.00 0.00 -72.00 87.00 0.00 -73.50 87.00 0.00 -75.00 87.00 0.00 -76.50 87.00 0.00 -78.00 87.00 0.00 -79.50 87.00 0.00 -81.00 87.00 0.00 -82.50 87.00 0.00 -84.00 87.00 0.00 -85.50 87.00 0.00 -87.00 87.00 0.00 -88.50 87.00 0.00 -90.00 87.00 0.00 -91.50 87.00 0.00 -93.00 87.00 0.00 -94.50 87.00 0.00 -96.00 87.00 0.00 -97.50 87.00 0.00 -99.00 87.00 0.00 -100.50 87.00 0.00 -102.00 87.00 0.00 -103.50 87.00 0.00 -105.00 87.00 0.00 -106.50 87.00 0.00 -108.00 87.00 0.00 -109.50 87.00 0.00 -111.00 87.00 0.00 -112.50 87.00 0.00 -114.00 87.00 0.00 -115.50 87.00 0.00 -117.00 87.00 0.00 -118.50 87.00 0.00 -120.00 87.00 0.00 -121.50 87.00 0.00 -123.00 87.00 0.00 -124.50 87.00 0.00 -126.00 87.00 0.00 -127.50 87.00 0.00 -129.00 87.00 0.00 -130.50 87.00 0.00 -132.00 87.00 0.00 -133.50 87.00 0.00 -135.00 87.00 0.00 -136.50 87.00 0.00 -138.00 87.00 0.00 -139.50 87.00 0.00 -141.00 87.00 0.00 -142.50 87.00 0.00 -144.00 87.00 0.00 -145.50 87.00 0.00 -147.00 87.00 0.00 -148.50 87.00 0.00 -150.00 87.00 0.00 -49.50 85.50 0.00 -51.00 85.50 0.00 -52.50 85.50 0.00 -54.00 85.50 0.00 -55.50 85.50 0.00 -57.00 85.50 0.00 -58.50 85.50 0.00 -60.00 85.50 0.00 -61.50 85.50 0.00 -63.00 85.50 0.00 -64.50 85.50 0.00 -66.00 85.50 0.00 -67.50 85.50 0.00 -69.00 85.50 0.00 -70.50 85.50 0.00 -72.00 85.50 0.00 -73.50 85.50 0.00 -75.00 85.50 0.00 -76.50 85.50 0.00 -78.00 85.50 0.00 -79.50 85.50 0.00 -81.00 85.50 0.00 -82.50 85.50 0.00 -84.00 85.50 0.00 -85.50 85.50 0.00 -87.00 85.50 0.00 -88.50 85.50 0.00 -90.00 85.50 0.00 -91.50 85.50 0.00 -93.00 85.50 0.00 -94.50 85.50 0.00 -96.00 85.50 0.00 -97.50 85.50 0.00 -99.00 85.50 0.00 -100.50 85.50 0.00 -102.00 85.50 0.00 -103.50 85.50 0.00 -105.00 85.50 0.00 -106.50 85.50 0.00 -108.00 85.50 0.00 -109.50 85.50 0.00 -111.00 85.50 0.00 -112.50 85.50 0.00 -114.00 85.50 0.00 -115.50 85.50 0.00 -117.00 85.50 0.00 -118.50 85.50 0.00 -120.00 85.50 0.00 -121.50 85.50 0.00 -123.00 85.50 0.00 -124.50 85.50 0.00 -126.00 85.50 0.00 -127.50 85.50 0.00 -129.00 85.50 0.00 -130.50 85.50 0.00 -132.00 85.50 0.00 -133.50 85.50 0.00 -135.00 85.50 0.00 -136.50 85.50 0.00 -138.00 85.50 0.00 -139.50 85.50 0.00 -141.00 85.50 0.00 -142.50 85.50 0.00 -144.00 85.50 0.00 -145.50 85.50 0.00 -147.00 85.50 0.00 -148.50 85.50 0.00 -150.00 85.50 0.00 -49.50 84.00 0.00 -51.00 84.00 0.00 -52.50 84.00 0.00 -54.00 84.00 0.00 -55.50 84.00 0.00 -57.00 84.00 0.00 -58.50 84.00 0.00 -60.00 84.00 0.00 -61.50 84.00 0.00 -63.00 84.00 0.00 -64.50 84.00 0.00 -66.00 84.00 0.00 -67.50 84.00 0.00 -69.00 84.00 0.00 -70.50 84.00 0.00 -72.00 84.00 0.00 -73.50 84.00 0.00 -75.00 84.00 0.00 -76.50 84.00 0.00 -78.00 84.00 0.00 -79.50 84.00 0.00 -81.00 84.00 0.00 -82.50 84.00 0.00 -84.00 84.00 0.00 -85.50 84.00 0.00 -87.00 84.00 0.00 -88.50 84.00 0.00 -90.00 84.00 0.00 -91.50 84.00 0.00 -93.00 84.00 0.00 -94.50 84.00 0.00 -96.00 84.00 0.00 -97.50 84.00 0.00 -99.00 84.00 0.00 -100.50 84.00 0.00 -102.00 84.00 0.00 -103.50 84.00 0.00 -105.00 84.00 0.00 -106.50 84.00 0.00 -108.00 84.00 0.00 -109.50 84.00 0.00 -111.00 84.00 0.00 -112.50 84.00 0.00 -114.00 84.00 0.00 -115.50 84.00 0.00 -117.00 84.00 0.00 -118.50 84.00 0.00 -120.00 84.00 0.00 -121.50 84.00 0.00 -123.00 84.00 0.00 -124.50 84.00 0.00 -126.00 84.00 0.00 -127.50 84.00 0.00 -129.00 84.00 0.00 -130.50 84.00 0.00 -132.00 84.00 0.00 -133.50 84.00 0.00 -135.00 84.00 0.00 -136.50 84.00 0.00 -138.00 84.00 0.00 -139.50 84.00 0.00 -141.00 84.00 0.00 -142.50 84.00 0.00 -144.00 84.00 0.00 -145.50 84.00 0.00 -147.00 84.00 0.00 -148.50 84.00 0.00 -150.00 84.00 0.00 -49.50 82.50 0.00 -51.00 82.50 0.00 -52.50 82.50 0.00 -54.00 82.50 0.00 -55.50 82.50 0.00 -57.00 82.50 0.00 -58.50 82.50 0.00 -60.00 82.50 0.00 -61.50 82.50 0.00 -63.00 82.50 0.00 -64.50 82.50 0.00 -66.00 82.50 0.00 -67.50 82.50 0.00 -69.00 82.50 0.00 -70.50 82.50 0.00 -72.00 82.50 0.00 -73.50 82.50 0.00 -75.00 82.50 0.00 -76.50 82.50 0.00 -78.00 82.50 0.00 -79.50 82.50 0.00 -81.00 82.50 0.00 -82.50 82.50 0.00 -84.00 82.50 0.00 -85.50 82.50 0.00 -87.00 82.50 0.00 -88.50 82.50 0.00 -90.00 82.50 0.00 -91.50 82.50 0.00 -93.00 82.50 0.00 -94.50 82.50 0.00 -96.00 82.50 0.00 -97.50 82.50 0.00 -99.00 82.50 0.00 -100.50 82.50 0.00 -102.00 82.50 0.00 -103.50 82.50 0.00 -105.00 82.50 0.00 -106.50 82.50 0.00 -108.00 82.50 0.00 -109.50 82.50 0.00 -111.00 82.50 0.00 -112.50 82.50 0.00 -114.00 82.50 0.00 -115.50 82.50 0.00 -117.00 82.50 0.00 -118.50 82.50 0.00 -120.00 82.50 0.00 -121.50 82.50 0.00 -123.00 82.50 0.00 -124.50 82.50 0.00 -126.00 82.50 0.00 -127.50 82.50 0.00 -129.00 82.50 0.00 -130.50 82.50 0.00 -132.00 82.50 0.00 -133.50 82.50 0.00 -135.00 82.50 0.00 -136.50 82.50 0.00 -138.00 82.50 0.00 -139.50 82.50 0.00 -141.00 82.50 0.00 -142.50 82.50 0.00 -144.00 82.50 0.00 -145.50 82.50 0.00 -147.00 82.50 0.00 -148.50 82.50 0.00 -150.00 82.50 0.00 -49.50 81.00 0.00 -51.00 81.00 0.00 -52.50 81.00 0.00 -54.00 81.00 0.00 -55.50 81.00 0.00 -57.00 81.00 0.00 -58.50 81.00 0.00 -60.00 81.00 0.00 -61.50 81.00 0.00 -63.00 81.00 0.00 -64.50 81.00 0.00 -66.00 81.00 0.00 -67.50 81.00 0.00 -69.00 81.00 0.00 -70.50 81.00 0.00 -72.00 81.00 0.00 -73.50 81.00 0.00 -75.00 81.00 0.00 -76.50 81.00 0.00 -78.00 81.00 0.00 -79.50 81.00 0.00 -81.00 81.00 0.00 -82.50 81.00 0.00 -84.00 81.00 0.00 -85.50 81.00 0.00 -87.00 81.00 0.00 -88.50 81.00 0.00 -90.00 81.00 0.00 -91.50 81.00 0.00 -93.00 81.00 0.00 -94.50 81.00 0.00 -96.00 81.00 0.00 -97.50 81.00 0.00 -99.00 81.00 0.00 -100.50 81.00 0.00 -102.00 81.00 0.00 -103.50 81.00 0.00 -105.00 81.00 0.00 -106.50 81.00 0.00 -108.00 81.00 0.00 -109.50 81.00 0.00 -111.00 81.00 0.00 -112.50 81.00 0.00 -114.00 81.00 0.00 -115.50 81.00 0.00 -117.00 81.00 0.00 -118.50 81.00 0.00 -120.00 81.00 0.00 -121.50 81.00 0.00 -123.00 81.00 0.00 -124.50 81.00 0.00 -126.00 81.00 0.00 -127.50 81.00 0.00 -129.00 81.00 0.00 -130.50 81.00 0.00 -132.00 81.00 0.00 -133.50 81.00 0.00 -135.00 81.00 0.00 -136.50 81.00 0.00 -138.00 81.00 0.00 -139.50 81.00 0.00 -141.00 81.00 0.00 -142.50 81.00 0.00 -144.00 81.00 0.00 -145.50 81.00 0.00 -147.00 81.00 0.00 -148.50 81.00 0.00 -150.00 81.00 0.00 -49.50 79.50 0.00 -51.00 79.50 0.00 -52.50 79.50 0.00 -54.00 79.50 0.00 -55.50 79.50 0.00 -57.00 79.50 0.00 -58.50 79.50 0.00 -60.00 79.50 0.00 -61.50 79.50 0.00 -63.00 79.50 0.00 -64.50 79.50 0.00 -66.00 79.50 0.00 -67.50 79.50 0.00 -69.00 79.50 0.00 -70.50 79.50 0.00 -72.00 79.50 0.00 -73.50 79.50 0.00 -75.00 79.50 0.00 -76.50 79.50 0.00 -78.00 79.50 0.00 -79.50 79.50 0.00 -81.00 79.50 0.00 -82.50 79.50 0.00 -84.00 79.50 0.00 -85.50 79.50 0.00 -87.00 79.50 0.00 -88.50 79.50 0.00 -90.00 79.50 0.00 -91.50 79.50 0.00 -93.00 79.50 0.00 -94.50 79.50 0.00 -96.00 79.50 0.00 -97.50 79.50 0.00 -99.00 79.50 0.00 -100.50 79.50 0.00 -102.00 79.50 0.00 -103.50 79.50 0.00 -105.00 79.50 0.00 -106.50 79.50 0.00 -108.00 79.50 0.00 -109.50 79.50 0.00 -111.00 79.50 0.00 -112.50 79.50 0.00 -114.00 79.50 0.00 -115.50 79.50 0.00 -117.00 79.50 0.00 -118.50 79.50 0.00 -120.00 79.50 0.00 -121.50 79.50 0.00 -123.00 79.50 0.00 -124.50 79.50 0.00 -126.00 79.50 0.00 -127.50 79.50 0.00 -129.00 79.50 0.00 -130.50 79.50 0.00 -132.00 79.50 0.00 -133.50 79.50 0.00 -135.00 79.50 0.00 -136.50 79.50 0.
[...]
POINT_DATA 4624
VECTORS wind2 float
5.90 -3.83 0.00 6.00 -3.63 0.00 6.10 -3.43 0.00 6.20 -3.33 0.00 6.30 -3.13 0.00 6.40 -3.03 0.00 6.40 -2.83 0.00 6.50 -2.63 0.00 6.60 -2.43 0.00 6.60 -2.33 0.00 6.70 -2.13 0.00 6.70 -1.93 0.00 6.80 -1.73 0.00 6.80 -1.63 0.00 6.90 -1.43 0.00 6.90 -1.23 0.00 6.90 -1.03 0.00 7.00 -0.83 0.00 7.00 -0.73 0.00 7.00 -0.53 0.00 7.00 -0.33 0.00 7.00 -0.13 0.00 7.00 0.07 0.00 7.00 0.27 0.00 7.00 0.37 0.00 7.00 0.57 0.00 7.00 0.77 0.00 7.00 0.97 0.00 6.90 1.17 0.00 6.90 1.37 0.00 6.90 1.47 0.00 6.80 1.67 0.00 6.80 1.87 0.00 6.70 2.07 0.00 6.70 2.17 0.00 6.60 2.37 0.00 6.50 2.57 0.00 6.50 2.77 0.00 6.40 2.87 0.00 6.30 3.07 0.00 6.20 3.27 0.00 6.10 3.37 0.00 6.10 3.57 0.00 6.00 3.67 0.00 5.90 3.87 0.00 5.80 3.97 0.00 5.70 4.17 0.00 5.50 4.27 0.00 5.40 4.47 0.00 5.30 4.57 0.00 5.20 4.77 0.00 5.10 4.87 0.00 4.90 4.97 0.00 4.80 5.17 0.00 4.70 5.27 0.00 4.50 5.37 0.00 4.40 5.47 0.00 4.20 5.57 0.00 4.10 5.67 0.00 3.90 5.77 0.00 3.80 5.87 0.00 3.60 5.97 0.00 3.50 6.07 0.00 3.30 6.17 0.00 3.20 6.27 0.00 3.00 6.37 0.00 2.80 6.47 0.00 2.60 6.47 0.00 3.80 -1.43 0.00 3.70 -1.33 0.00 3.70 -1.23 0.00 3.70 -1.13 0.00 3.70 -1.03 0.00 3.70 -0.83 0.00 3.60 -0.73 0.00 3.60 -0.63 0.00 3.70 -0.53 0.00 3.60 -0.43 0.00 3.60 -0.33 0.00 3.60 -0.23 0.00 3.60 -0.13 0.00 3.60 -0.03 0.00 3.60 0.07 0.00 3.50 0.17 0.00 3.50 0.27 0.00 3.50 0.37 0.00 3.50 0.47 0.00 3.50 0.57 0.00 3.50 0.67 0.00 3.50 0.77 0.00 3.50 0.77 0.00 3.50 0.87 0.00 3.40 0.97 0.00 3.40 1.07 0.00 3.40 1.17 0.00 3.40 1.17 0.00 3.40 1.37 0.00 3.40 1.37 0.00 3.40 1.47 0.00 3.40 1.57 0.00 3.40 1.67 0.00 3.40 1.77 0.00 3.40 1.87 0.00 3.40 1.87 0.00 3.30 2.07 0.00 3.40 2.17 0.00 3.40 2.17 0.00 3.30 2.27 0.00 3.30 2.47 0.00 3.30 2.47 0.00 3.30 2.57 0.00 3.30 2.67 0.00 3.30 2.87 0.00 3.30 2.87 0.00 3.20 3.07 0.00 3.20 3.07 0.00 3.20 3.27 0.00 3.20 3.37 0.00 3.10 3.47 0.00 3.10 3.57 0.00 3.10 3.67 0.00 3.00 3.77 0.00 3.00 3.87 0.00 2.90 3.97 0.00 2.90 4.07 0.00 2.80 4.17 0.00 2.80 4.27 0.00 2.70 4.37 0.00 2.60 4.47 0.00 2.60 4.57 0.00 2.50 4.67 0.00 2.40 4.77 0.00 2.40 4.87 0.00 2.30 4.87 0.00 2.20 4.97 0.00 2.10 5.07 0.00 -2.40 0.87 0.00 -2.50 0.87 0.00 -2.60 0.87 0.00 -2.80 0.87 0.00 -2.80 0.87 0.00 -2.90 0.87 0.00 -3.00 0.87 0.00 -3.10 0.87 0.00 -3.10 0.87 0.00 -3.20 0.87 0.00 -3.30 0.87 0.00 -3.30 0.87 0.00 -3.30 0.77 0.00 -3.40 0.77 0.00 -3.40 0.77 0.00 -3.40 0.67 0.00 -3.40 0.67 0.00 -3.40 0.67 0.00 -3.40 0.57 0.00 -3.40 0.57 0.00 -3.30 0.57 0.00 -3.30 0.47 0.00 -3.20 0.47 0.00 -3.20 0.37 0.00 -3.10 0.37 0.00 -3.10 0.27 0.00 -3.00 0.27 0.00 -2.90 0.27 0.00 -2.80 0.17 0.00 -2.80 0.17 0.00 -2.60 0.17 0.00 -2.50 0.17 0.00 -2.40 0.07 0.00 -2.30 0.07 0.00 -2.20 0.07 0.00 -2.10 0.07 0.00 -1.90 0.07 0.00 -1.80 0.07 0.00 -1.70 0.17 0.00 -1.60 0.17 0.00 -1.40 0.17 0.00 -1.30 0.17 0.00 -1.10 0.27 0.00 -1.00 0.37 0.00 -0.90 0.37 0.00 -0.80 0.47 0.00 -0.60 0.57 0.00 -0.50 0.67 0.00 -0.30 0.77 0.00 -0.30 0.87 0.00 -0.10 0.97 0.00 -0.00 1.07 0.00 0.10 1.17 0.00 0.20 1.27 0.00 0.30 1.47 0.00 0.40 1.57 0.00 0.50 1.77 0.00 0.60 1.77 0.00 0.70 1.97 0.00 0.70 2.07 0.00 0.80 2.27 0.00 0.90 2.37 0.00 1.00 2.57 0.00 1.00 2.67 0.00 1.10 2.77 0.00 1.10 2.87 0.00 1.20 3.07 0.00 1.20 3.17 0.00 -9.30 1.67 0.00 -9.50 1.57 0.00 -9.60 1.37 0.00 -9.80 1.17 0.00 -9.90 0.97 0.00 -10.00 0.77 0.00 -10.10 0.57 0.00 -10.20 0.37 0.00 -10.30 0.27 0.00 -10.30 0.07 0.00 -10.40 -0.13 0.00 -10.40 -0.23 0.00 -10.40 -0.43 0.00 -10.40 -0.53 0.00 -10.30 -0.73 0.00 -10.30 -0.83 0.00 -10.30 -0.93 0.00 -10.20 -1.03 0.00 -10.20 -1.13 0.00 -10.00 -1.23 0.00 -10.00 -1.23 0.00 -9.80 -1.43 0.00 -9.70 -1.43 0.00 -9.60 -1.53 0.00 -9.50 -1.63 0.00 -9.30 -1.73 0.00 -9.10 -1.83 0.00 -8.90 -1.83 0.00 -8.80 -1.93 0.00 -8.60 -2.03 0.00 -8.40 -2.13 0.00 -8.20 -2.23 0.00 -8.00 -2.33 0.00 -7.70 -2.43 0.00 -7.50 -2.43 0.00 -7.30 -2.53 0.00 -7.10 -2.63 0.00 -6.80 -2.63 0.00 -6.60 -2.73 0.00 -6.40 -2.73 0.00 -6.10 -2.73 0.00 -5.90 -2.83 0.00 -5.70 -2.83 0.00 -5.40 -2.83 0.00 -5.10 -2.73 0.00 -4.90 -2.73 0.00 -4.70 -2.73 0.00 -4.40 -2.63 0.00 -4.10 -2.53 0.00 -3.90 -2.43 0.00 -3.60 -2.33 0.00 -3.30 -2.23 0.00 -3.10 -2.03 0.00 -2.80 -1.83 0.00 -2.60 -1.73 0.00 -2.30 -1.53 0.00 -2.00 -1.33 0.00 -1.80 -1.13 0.00 -1.60 -0.93 0.00 -1.30 -0.73 0.00 -1.10 -0.53 0.00 -0.80 -0.33 0.00 -0.70 -0.13 0.00 -0.40 0.07 0.00 -0.30 0.27 0.00 -0.10 0.47 0.00 0.10 0.67 0.00 0.30 0.77 0.00 -13.20 2.47 0.00 -13.40 1.97 0.00 -13.60 1.57 0.00 -13.90 1.07 0.00 -14.00 0.77 0.00 -14.20 0.27 0.00 -14.30 -0.03 0.00 -14.50 -0.43 0.00 -14.60 -0.73 0.00 -14.60 -1.13 0.00 -14.70 -1.33 0.00 -14.70 -1.63 0.00 -14.70 -1.83 0.00 -14.70 -2.13 0.00 -14.60 -2.23 0.00 -14.60 -2.43 0.00 -14.50 -2.53 0.00 -14.40 -2.73 0.00 -14.30 -2.73 0.00 -14.20 -2.93 0.00 -14.00 -2.93 0.00 -13.90 -3.03 0.00 -13.70 -3.13 0.00 -13.60 -3.23 0.00 -13.30 -3.23 0.00 -13.20 -3.43 0.00 -12.90 -3.43 0.00 -12.70 -3.63 0.00 -12.40 -3.73 0.00 -12.20 -3.93 0.00 -11.90 -4.03 0.00 -11.70 -4.13 0.00 -11.40 -4.23 0.00 -11.10 -4.43 0.00 -10.90 -4.53 0.00 -10.60 -4.73 0.00 -10.30 -4.83 0.00 -10.10 -5.03 0.00 -9.80 -5.13 0.00 -9.50 -5.23 0.00 -9.20 -5.33 0.00 -9.00 -5.43 0.00 -8.70 -5.53 0.00 -8.40 -5.63 0.00 -8.10 -5.63 0.00 -7.80 -5.73 0.00 -7.50 -5.73 0.00 -7.20 -5.63 0.00 -6.80 -5.63 0.00 -6.50 -5.53 0.00 -6.20 -5.33 0.00 -5.80 -5.33 0.00 -5.50 -5.03 0.00 -5.10 -4.93 0.00 -4.70 -4.73 0.00 -4.40 -4.53 0.00 -4.00 -4.23 0.00 -3.70 -4.03 0.00 -3.30 -3.73 0.00 -2.90 -3.53 0.00 -2.60 -3.23 0.00 -2.20 -3.03 0.00 -1.90 -2.73 0.00 -1.60 -2.53 0.00 -1.30 -2.23 0.00 -1.00 -2.03 0.00 -0.70 -1.83 0.00 -0.40 -1.63 0.00 -14.80 2.47 0.00 -15.00 1.97 0.00 -15.20 1.47 0.00 -15.40 0.97 0.00 -15.50 0.47 0.00 -15.70 0.07 0.00 -15.80 -0.33 0.00 -15.80 -0.63 0.00 -15.80 -0.93 0.00 -15.70 -1.13 0.00 -15.60 -1.33 0.00 -15.50 -1.63 0.00 -15.40 -1.83 0.00 -15.30 -2.03 0.00 -15.20 -2.23 0.00 -15.10 -2.33 0.00 -15.00 -2.53 0.00 -14.80 -2.63 0.00 -14.70 -2.83 0.00 -14.60 -2.93 0.00 -14.50 -3.03 0.00 -14.30 -3.13 0.00 -14.10 -3.23 0.00 -13.90 -3.33 0.00 -13.70 -3.43 0.00 -13.40 -3.63 0.00 -13.10 -3.83 0.00 -12.90 -4.03 0.00 -12.60 -4.23 0.00 -12.30 -4.43 0.00 -12.00 -4.63 0.00 -11.70 -4.93 0.00 -11.50 -5.13 0.00 -11.20 -5.33 0.00 -10.90 -5.53 0.00 -10.60 -5.73 0.00 -10.30 -5.93 0.00 -10.00 -6.13 0.00 -9.80 -6.33 0.00 -9.50 -6.53 0.00 -9.30 -6.73 0.00 -9.00 -6.93 0.00 -8.80 -7.03 0.00 -8.60 -7.13 0.00 -8.30 -7.33 0.00 -8.10 -7.43 0.00 -7.80 -7.43 0.00 -7.50 -7.53 0.00 -7.20 -7.53 0.00 -6.90 -7.53 0.00 -6.60 -7.43 0.00 -6.30 -7.33 0.00 -6.00 -7.23 0.00 -5.60 -7.03 0.00 -5.30 -6.83 0.00 -4.90 -6.63 0.00 -4.60 -6.43 0.00 -4.20 -6.13 0.00 -3.80 -5.93 0.00 -3.40 -5.63 0.00 -3.10 -5.43 0.00 -2.70 -5.13 0.00 -2.30 -4.93 0.00 -2.00 -4.73 0.00 -1.60 -4.43 0.00 -1.30 -4.33 0.00 -1.00 -4.03 0.00 -0.70 -3.83 0.00 -15.60 1.07 0.00 -15.60 0.67 0.00 -15.60 0.37 0.00 -15.60 -0.03 0.00 -15.60 -0.23 0.00 -15.50 -0.53 0.00 -15.40 -0.63 0.00 -15.30 -0.83 0.00 -15.10 -0.93 0.00 -14.90 -0.93 0.00 -14.60 -1.03 0.00 -14.30 -1.03 0.00 -14.10 -1.03 0.00 -13.80 -1.13 0.00 -13.60 -1.13 0.00 -13.40 -1.23 0.00 -13.10 -1.33 0.00 -12.90 -1.53 0.00 -12.70 -1.63 0.00 -12.40 -1.83 0.00 -12.10 -2.03 0.00 -11.80 -2.23 0.00 -11.50 -2.53 0.00 -11.20 -2.83 0.00 -10.90 -3.03 0.00 -10.70 -3.33 0.00 -10.50 -3.63 0.00 -10.30 -3.93 0.00 -10.00 -4.23 0.00 -9.80 -4.53 0.00 -9.60 -4.73 0.00 -9.30 -5.03 0.00 -9.10 -5.23 0.00 -8.80 -5.43 0.00 -8.50 -5.63 0.00 -8.30 -5.93 0.00 -8.00 -6.13 0.00 -7.80 -6.33 0.00 -7.60 -6.53 0.00 -7.40 -6.73 0.00 -7.20 -6.93 0.00 -7.10 -7.23 0.00 -6.90 -7.43 0.00 -6.80 -7.63 0.00 -6.60 -7.83 0.00 -6.50 -8.03 0.00 -6.30 -8.13 0.00 -6.20 -8.33 0.00 -6.00 -8.33 0.00 -5.80 -8.43 0.00 -5.50 -8.43 0.00 -5.30 -8.43 0.00 -5.10 -8.23 0.00 -4.80 -8.23 0.00 -4.60 -8.03 0.00 -4.30 -7.93 0.00 -4.00 -7.73 0.00 -3.70 -7.53 0.00 -3.30 -7.33 0.00 -3.00 -7.13 0.00 -2.70 -6.93 0.00 -2.30 -6.83 0.00 -2.00 -6.63 0.00 -1.60 -6.53 0.00 -1.30 -6.33 0.00 -0.90 -6.23 0.00 -0.60 -6.03 0.00 -0.30 -5.93 0.00 -13.90 -0.53 0.00 -13.80 -0.73 0.00 -13.60 -0.93 0.00 -13.40 -0.93 0.00 -13.10 -0.93 0.00 -12.90 -0.93 0.00 -12.50 -0.83 0.00 -12.10 -0.83 0.00 -11.70 -0.83 0.00 -11.20 -0.83 0.00 -10.80 -0.73 0.00 -10.40 -0.83 0.00 -10.00 -0.83 0.00 -9.60 -0.83 0.00 -9.30 -0.93 0.00 -9.00 -1.03 0.00 -8.70 -1.03 0.00 -8.50 -1.23 0.00 -8.20 -1.43 0.00 -7.80 -1.63 0.00 -7.60 -1.93 0.00 -7.30 -2.13 0.00 -7.10 -2.43 0.00 -6.90 -2.83 0.00 -6.70 -3.03 0.00 -6.60 -3.33 0.00 -6.40 -3.53 0.00 -6.30 -3.73 0.00 -6.20 -3.93 0.00 -6.00 -4.13 0.00 -5.90 -4.23 0.00 -5.70 -4.43 0.00 -5.50 -4.63 0.00 -5.40 -4.83 0.00 -5.20 -5.03 0.00 -5.10 -5.23 0.00 -5.00 -5.43 0.00 -4.80 -5.73 0.00 -4.80 -6.03 0.00 -4.70 -6.23 0.00 -4.70 -6.53 0.00 -4.60 -6.83 0.00 -4.50 -7.13 0.00 -4.40 -7.43 0.00 -4.20 -7.63 0.00 -4.10 -7.83 0.00 -4.00 -8.13 0.00 -3.80 -8.23 0.00 -3.70 -8.33 0.00 -3.50 -8.53 0.00 -3.40 -8.53 0.00 -3.20 -8.53 0.00 -3.00 -8.53 0.00 -2.80 -8.43 0.00 -2.60 -8.43 0.00 -2.30 -8.33 0.00 -2.10 -8.23 0.00 -1.80 -8.13 0.00 -1.50 -8.03 0.00 -1.20 -7.93 0.00 -0.90 -7.83 0.00 -0.60 -7.73 0.00 -0.30 -7.73 0.00 0.10 -7.63 0.00 0.40 -7.53 0.00 0.80 -7.43 0.00 1.10 -7.33 0.00 1.40 -7.13 0.00 -10.20 -0.63 0.00 -10.00 -0.73 0.00 -9.70 -0.83 0.00 -9.30 -0.93 0.00 -9.00 -0.93 0.00 -8.60 -1.03 0.00 -8.10 -1.03 0.00 -7.70 -1.13 0.00 -7.20 -1.23 0.00 -6.80 -1.33 0.00 -6.40 -1.43 0.00 -6.00 -1.53 0.00 -5.60 -1.63 0.00 -5.30 -1.83 0.00 -5.00 -1.83 0.00 -4.70 -2.03 0.00 -4.40 -2.03 0.00 -4.20 -2.23 0.00 -4.00 -2.23 0.00 -3.80 -2.43 0.00 -3.60 -2.53 0.00 -3.40 -2.73 0.00 -3.30 -2.83 0.00 -3.20 -2.93 0.00 -3.10 -3.03 0.00 -3.10 -3.23 0.00 -3.00 -3.23 0.00 -3.00 -3.33 0.00 -3.00 -3.33 0.00 -2.90 -3.43 0.00 -2.90 -3.53 0.00 -2.90 -3.73 0.00 -2.80 -3.83 0.00 -2.80 -4.13 0.00 -2.70 -4.33 0.00 -2.70 -4.63 0.00 -2.70 -4.93 0.00 -2.60 -5.23 0.00 -2.60 -5.53 0.00 -2.50 -5.93 0.00 -2.40 -6.23 0.00 -2.40 -6.53 0.00 -2.20 -6.93 0.00 -2.10 -7.23 0.00 -1.90 -7.53 0.00 -1.80 -7.83 0.00 -1.50 -8.03 0.00 -1.40 -8.33 0.00 -1.20 -8.43 0.00 -1.00 -8.63 0.00 -0.80 -8.73 0.00 -0.60 -8.83 0.00 -0.40 -8.83 0.00 -0.10 -8.83 0.00 0.10 -8.73 0.00 0.40 -8.73 0.00 0.60 -8.63 0.00 0.90 -8.63 0.00 1.20 -8.53 0.00 1.40 -8.53 0.00 1.70 -8.43 0.00 1.90 -8.43 0.00 2.20 -8.23 0.00 2.40 -8.23 0.00 2.70 -8.03 0.00 2.90 -7.83 0.00 3.20 -7.53 0.00 3.40 -7.13 0.00 -5.60 -2.33 0.00 -5.30 -2.43 0.00 -5.00 -2.43 0.00 -4.60 -2.43 0.00 -4.20 -2.33 0.00 -3.90 -2.23 0.00 -3.60 -2.13 0.00 -3.30 -2.13 0.00 -3.00 -2.13 0.00 -2.70 -2.13 0.00 -2.30 -2.23 0.00 -2.00 -2.33 0.00 -1.70 -2.43 0.00 -1.30 -2.53 0.00 -1.00 -2.63 0.00 -0.70 -2.63 0.00 -0.50 -2.73 0.00 -0.30 -2.73 0.00 -0.20 -2.73 0.00 -0.10 -2.73 0.00 -0.10 -2.63 0.00 -0.00 -2.73 0.00 0.10 -2.73 0.00 0.10 -2.83 0.00 0.20 -2.93 0.00 0.20 -3.03 0.00 0.20 -3.03 0.00 0.20 -3.13 0.00 0.10 -3.23 0.00 0.10 -3.33 0.00 0.10 -3.33 0.00 0.10 -3.53 0.00 0.20 -3.63 0.00 0.20 -3.83 0.00 0.20 -4.13 0.00 0.30 -4.33 0.00 0.30 -4.63 0.00 0.30 -4.93 0.00 0.30 -5.23 0.00 0.30 -5.53 0.00 0.30 -5.93 0.00 0.40 -6.33 0.00 0.40 -6.63 0.00 0.50 -7.03 0.00 0.60 -7.43 0.00 0.70 -7.83 0.00 0.80 -8.23 0.00 0.90 -8.53 0.00 1.10 -8.83 0.00 1.20 -9.03 0.00 1.40 -9.13 0.00 1.70 -9.23 0.00 1.80 -9.33 0.00 2.10 -9.33 0.00 2.30 -9.33 0.00 2.60 -9.23 0.00 2.80 -9.13 0.00 3.00 -9.03 0.00 3.20 -8.83 0.00 3.40 -8.63 0.00 3.50 -8.43 0.00 3.60 -8.13 0.00 3.70 -7.83 0.00 3.80 -7.53 0.00 3.80 -7.13 0.00 3.80 -6.73 0.00 3.80 -6.23 0.00 3.80 -5.73 0.00 -2.10 -3.83 0.00 -1.90 -3.73 0.00 -1.50 -3.53 0.00 -1.20 -3.33 0.00 -0.90 -3.03 0.00 -0.70 -2.93 0.00 -0.40 -2.83 0.00 -0.20 -2.83 0.00 -0.00 -2.83 0.00 0.30 -3.13 0.00 0.70 -3.23 0.00 1.10 -3.43 0.00 1.60 -3.53 0.00 1.90 -3.53 0.00 2.30 -3.53 0.00 2.70 -3.53 0.00 2.90 -3.43 0.00 3.10 -3.33 0.00 3.30 -3.23 0.00 3.30 -3.23 0.00 3.50 -3.23 0.00 3.60 -3.23 0.00 3.80 -3.23 0.00 3.90 -3.23 0.00 4.00 -3.33 0.00 4.10 -3.33 0.00 4.10 -3.33 0.00 4.10 -3.33 0.00 4.10 -3.33 0.00 4.00 -3.43 0.00 4.00 -3.43 0.00 3.80 -3.43 0.00 3.80 -3.53 0.00 3.60 -3.63 0.00 3.50 -3.73 0.00 3.30 -3.93 0.00 3.20 -4.13 0.00 3.00 -4.43 0.00 2.90 -4.73 0.00 2.70 -5.03 0.00 2.60 -5.43 0.00 2.60 -5.83 0.00 2.50 -6.23 0.00 2.60 -6.73 0.00 2.60 -7.13 0.00 2.60 -7.63 0.00 2.70 -8.03 0.00 2.80 -8.43 0.00 2.90 -8.73 0.00 3.00 -9.03 0.00 3.20 -9.23 0.00 3.30 -9.43 0.00 3.50 -9.53 0.00 3.70 -9.53 0.00 3.90 -9.43 0.00 4.00 -9.33 0.00 4.20 -9.03 0.00 4.20 -8.83 0.00 4.30 -8.43 0.00 4.30 -8.13 0.00 4.30 -7.63 0.00 4.30 -7.13 0.00 4.20 -6.63 0.00 4.10 -6.13 0.00 4.10 -5.63 0.00 4.00 -5.13 0.00 3.90 -4.73 0.00 3.90 -4.33 0.00 1.90 -2.73 0.00 2.00 -2.63 0.00 2.00 -2.53 0.00 2.10 -2.43 0.00 2.10 -2.53 0.00 2.20 -2.63 0.00 2.30 -2.93 0.00 2.50 -3.23 0.00 2.80 -3.63 0.00 3.20 -3.93 0.00 3.70 -4.23 0.00 4.20 -4.43 0.00 4.60 -4.53 0.00 5.10 -4.53 0.00 5.40 -4.53 0.00 5.70 -4.53 0.00 5.90 -4.43 0.00 6.20 -4.43 0.00 6.40 -4.43 0.00 6.70 -4.53 0.00 7.00 -4.53 0.00 7.30 -4.53 0.00 7.50 -4.43 0.00 7.70 -4.33 0.00 7.70 -4.03 0.00 7.70 -3.83 0.00 7.50 -3.63 0.00 7.30 -3.43 0.00 7.00 -3.13 0.00 6.70 -2.93 0.00 6.40 -2.73 0.00 6.10 -2.53 0.00 5.70 -2.43 0.00 5.30 -2.43 0.00 4.90 -2.43 0.00 4.50 -2.53 0.00 4.10 -2.73 0.00 3.70 -3.03 0.00 3.50 -3.43 0.00 3.20 -3.93 0.00 3.10 -4.53 0.00 3.00 -5.13 0.00 3.00 -5.73 0.00 3.20 -6.33 0.00 3.30 -6.93 0.00 3.50 -7.43 0.00 3.80 -7.83 0.00 4.00 -8.13 0.00 4.30 -8.43 0.00 4.60 -8.73 0.00 4.90 -8.83 0.00 5.20 -8.93 0.00 5.40 -8.93 0.00 5.60 -8.93 0.00 5.80 -8.73 0.00 5.90 -8.53 0.00 6.00 -8.23 0.00 6.10 -7.83 0.00 6.20 -7.43 0.00 6.20 -6.83 0.00 6.10 -6.33 0.00 6.10 -5.83 0.00 6.00 -5.33 0.00 6.00 -4.93 0.00 6.00 -4.63 0.00 6.10 -4.33 0.00 6.20 -4.03 0.00 6.30 -3.93 0.00 4.90 -1.83 0.00 4.50 -1.93 0.00 4.30 -2.03 0.00 4.10 -2.33 0.00 4.10 -2.63 0.00 4.20 -2.93 0.00 4.50 -3.33 0.00 4.90 -3.83 0.00 5.40 -4.33 0.00 5.90 -4.83 0.00 6.50 -5.13 0.00 7.00 -5.43 0.00 7.50 -5.53 0.00 7.80 -5.63 0.00 8.10 -5.63 0.00 8.40 -5.73 0.00 8.80 -5.73 0.00 9.20 -5.83 0.00 9.60 -5.83 0.00 9.90 -5.83 0.00 10.20 -5.73 0.00 10.30 -5.53 0.00 10.40 -5.13 0.00 10.40 -4.73 0.00 10.20 -4.23 0.00 9.90 -3.73 0.00 9.60 -3.23 0.00 9.10 -2.73 0.00 8.70 -2.33 0.00 8.30 -1.93 0.00 8.00 -1.53 0.00 7.60 -1.23 0.00 7.30 -1.03 0.00 6.90 -0.83 0.00 6.50 -0.73 0.00 6.10 -0.83 0.00 5.70 -1.03 0.00 5.40 -1.43 0.00 5.00 -1.93 0.00 4.70 -2.73 0.00 4.60 -3.53 0.00 4.40 -4.43 0.00 4.50 -5.33 0.00 4.60 -6.23 0.00 4.90 -7.03 0.00 5.30 -7.63 0.00 5.80 -8.03 0.00 6.20 -8.43 0.00 6.70 -8.63 0.00 7.10 -8.73 0.00 7.50 -8.83 0.00 7.80 -8.83 0.00 8.10 -8.63 0.00 8.40 -8.53 0.00 8.60 -8.23 0.00 8.70 -7.93 0.00 8.90 -7.53 0.00 9.00 -7.03 0.00 9.10 -6.53 0.00 9.10 -6.03 0.00 9.10 -5.53 0.00 9.20 -5.13 0.00 9.20 -4.83 0.00 9.30 -4.53 0.00 9.50 -4.33 0.00 9.60 -4.23 0.00 9.80 -4.03 0.00 10.00 -4.03 0.00 5.30 -1.33 0.00 5.10 -1.73 0.00 5.00 -2.13 0.00 5.10 -2.63 0.00 5.40 -3.13 0.00 6.00 -3.73 0.00 6.60 -4.33 0.00 7.30 -4.93 0.00 8.00 -5.43 0.00 8.60 -5.83 0.00 9.30 -6.23 0.00 9.80 -6.43 0.00 10.30 -6.53 0.00 10.80 -6.63 0.00 11.20 -6.63 0.00 11.60 -6.63 0.00 12.00 -6.53 0.00 12.30 -6.43 0.00 12.50 -6.13 0.00 12.60 -5.83 0.00 12.60 -5.43 0.00 12.60 -5.13 0.00 12.50 -4.63 0.00 12.40 -4.13 0.00 12.10 -3.63 0.00 11.80 -3.13 0.00 11.50 -2.63 0.00 11.20 -2.23 0.00 10.80 -1.83 0.00 10.70 -1.43 0.00 10.40 -1.03 0.00 10.20 -0.73 0.00 10.00 -0.33 0.00 9.80 -0.13 0.00 9.60 -0.03 0.00 9.50 -0.13 0.00 9.30 -0.33 0.00 9.10 -0.73 0.00 9.00 -1.23 0.00 8.80 -1.93 0.00 8.70 -2.73 0.00 8.60 -3.73 0.00 8.40 -4.73 0.00 8.50 -5.83 0.00 8.60 -6.83 0.00 8.80 -7.73 0.00 9.00 -8.33 0.00 9.30 -8.83 0.00 9.70 -9.03 0.00 10.10 -9.13 0.00 10.40 -9.13 0.00 10.70 -9.03 0.00 11.00 -8.73 0.00 11.20 -8.43 0.00 11.30 -8.03 0.00 11.30 -7.63 0.00 11.40 -7.13 0.00 11.50 -6.63 0.00 11.50 -6.23 0.00 11.50 -5.83 0.00 11.50 -5.53 0.00 11.60 -5.33 0.00 11.70 -5.13 0.00 11.80 -5.03 0.00 12.00 -4.93 0.00 12.30 -4.83 0.00 12.60 -4.73 0.00 13.00 -4.73 0.00 5.70 -1.03 0.00 5.70 -2.03 0.00 5.90 -2.83 0.00 6.40 -3.73 0.00 7.10 -4.43 0.00 8.00 -5.23 0.00 8.90 -5.93 0.00 9.70 -6.63 0.00 10.50 -7.13 0.00 11.30 -7.53 0.00 12.10 -7.73 0.00 12.70 -7.93 0.00 13.40 -7.83 0.00 14.00 -7.63 0.00 14.40 -7.43 0.00 14.70 -7.03 0.00 14.90 -6.53 0.00 14.90 -6.13 0.00 14.90 -5.53 0.00 14.80 -5.13 0.00 14.70 -4.73 0.00 14.60 -4.33 0.00 14.50 -3.93 0.00 14.40 -3.63 0.00 14.20 -3.23 0.00 13.90 -2.83 0.00 13.60 -2.43 0.00 13.40 -2.03 0.00 13.10 -1.53 0.00 12.90 -1.13 0.00 12.70 -0.63 0.00 12.40 -0.33 0.00 12.10 0.07 0.00 11.90 0.27 0.00 11.80 0.27 0.00 11.70 0.07 0.00 11.80 -0.23 0.00 11.90 -0.73 0.00 12.10 -1.23 0.00 12.20 -1.83 0.00 12.30 -2.53 0.00 12.30 -3.43 0.00 12.20 -4.33 0.00 12.10 -5.33 0.00 12.00 -6.33 0.00 11.90 -7.33 0.00 11.90 -8.13 0.00 12.00 -8.73 0.00 12.20 -9.13 0.00 12.40 -9.43 0.00 12.60 -9.33 0.00 12.70 -9.23 0.00 12.90 -8.83 0.00 12.90 -8.43 0.00 12.90 -7.93 0.00 13.00 -7.53 0.00 13.00 -7.03 0.00 13.00 -6.53 0.00 13.00 -6.13 0.00 13.00 -5.83 0.00 13.00 -5.53 0.00 13.00 -5.43 0.00 13.00 -5.43 0.00 13.10 -5.53 0.00 13.30 -5.73 0.00 13.70 -6.03 0.00 14.40 -6.13 0.00 15.20 -6.43 0.00 6.30 -1.83 0.00 6.60 -3.23 0.00 7.10 -4.43 0.00 7.90 -5.53 0.00 8.80 -6.53 0.00 9.90 -7.43 0.00 10.90 -8.13 0.00 11.80 -8.73 0.00 12.80 -9.23 0.00 13.80 -9.53 0.00 14.70 -9.63 0.00 15.60 -9.43 0.00 16.10 -8.93 0.00 16.50 -8.43 0.00 16.80 -7.73 0.00 17.00 -7.03 0.00 17.10 -6.33 0.00 17.20 -5.63 0.00 17.20 -4.93 0.00 17.10 -4.43 0.00 16.90 -3.93 0.00 16.70 -3.53 0.00 16.40 -3.03 0.00 16.20 -2.73 0.00 15.80 -2.33 0.00 15.50 -1.93 0.00 15.20 -1.53 0.00 14.90 -1.03 0.00 14.60 -0.63 0.00 14.30 -0.23 0.00 14.00 0.17 0.00 13.60 0.47 0.00 13.30 0.77 0.00 13.00 0.77 0.00 12.90 0.57 0.00 12.90 0.17 0.00 13.10 -0.43 0.00 13.40 -1.13 0.00 13.90 -1.83 0.00 14.40 -2.53 0.00 14.70 -3.23 0.00 14.90 -3.93 0.00 15.00 -4.73 0.00 15.10 -5.53 0.00 15.10 -6.23 0.00 15.00 -7.03 0.00 14.90 -7.63 0.00 14.90 -8.13 0.00 14.70 -8.43 0.00 14.60 -8.63 0.00 14.50 -8.53 0.00 14.40 -8.33 0.00 14.30 -8.03 0.00 14.30 -7.63 0.00 14.20 -7.23 0.00 14.20 -6.73 0.00 14.20 -6.23 0.00 14.30 -5.73 0.00 14.20 -5.23 0.00 14.20 -4.83 0.00 14.10 -4.53 0.00 14.00 -4.53 0.00 14.00 -4.93 0.00 14.10 -5.63 0.00 14.40 -6.43 0.00 15.10 -7.23 0.00 16.10 -8.03 0.00 17.20 -8.93 0.00 7.70 -2.93 0.00 8.10 -4.63 0.00 8.70 -6.23 0.00 9.70 -7.63 0.00 10.90 -8.83 0.00 12.00 -9.83 0.00 13.10 -10.53 0.00 14.20 -11.03 0.00 15.20 -11.33 0.00 16.20 -11.43 0.00 17.10 -11.03 0.00 17.70 -10.63 0.00 18.20 -9.83 0.00 18.50 -9.03 0.00 18.90 -8.13 0.00 19.20 -7.33 0.00 19.50 -6.53 0.00 19.70 -5.63 0.00 19.70 -4.83 0.00 19.50 -4.03 0.00 19.20 -3.23 0.00 18.60 -2.63 0.00 18.20 -2.03 0.00 17.60 -1.53 0.00 17.20 -1.03 0.00 16.80 -0.63 0.00 16.40 -0.13 0.00 16.10 0.17 0.00 15.90 0.57 0.00 15.60 0.87 0.00 15.30 1.07 0.00 15.00 1.27 0.00 14.70 1.27 0.00 14.40 1.07 0.00 14.30 0.67 0.00 14.30 -0.03 0.00 14.50 -0.93 0.00 14.90 -1.93 0.00 15.50 -2.83 0.00 16.10 -3.63 0.00 16.70 -4.33 0.00 17.20 -4.93 0.00 17.50 -5.43 0.00 17.70 -6.03 0.00 17.80 -6.43 0.00 17.70 -6.93 0.00 17.70 -7.33 0.00 17.50 -7.53 0.00 17.30 -7.43 0.00 16.90 -7.33 0.00 16.60 -7.13 0.00 16.10 -6.93 0.00 15.80 -6.73 0.00 15.50 -6.53 0.00 15.40 -6.23 0.00 15.20 -5.83 0.00 15.10 -5.33 0.00 14.80 -4.83 0.00 14.70 -4.23 0.00 14.50 -3.73 0.00 14.50 -3.53 0.00 14.40 -3.93 0.00 14.50 -4.93 0.00 14.70 -6.23 0.00 15.40 -7.73 0.00 16.40 -9.23 0.00 17.60 -10.53 0.00 18.80 -11.83 0.00 10.10 -3.73 0.00 10.50 -6.03 0.00 11.10 -8.13 0.00 12.20 -9.83 0.00 13.30 -11.23 0.00 14.50 -12.13 0.00 15.60 -12.63 0.00 16.60 -12.93 0.00 17.40 -12.93 0.00 18.30 -12.73 0.00 19.00 -12.23 0.00 19.70 -11.63 0.00 20.20 -10.73 0.00 20.70 -9.93 0.00 21.10 -8.93 0.00 21.50 -7.93 0.00 21.90 -6.83 0.00 22.00 -5.63 0.00 21.90 -4.33 0.00 21.50 -3.03 0.00 20.70 -1.93 0.00 19.80 -1.03 0.00 19.00 -0.43 0.00 18.20 0.07 0.00 17.50 0.37 0.00 17.00 0.67 0.00 16.50 0.97 0.00 16.20 1.17 0.00 16.00 1.37 0.00 15.70 1.57 0.00 15.50 1.87 0.00 15.30 1.87 0.00 15.00 1.77 0.00 14.90 1.47 0.00 14.80 0.87 0.00 14.80 -0.03 0.00 14.90 -1.13 0.00 15.10 -2.33 0.00 15.60 -3.33 0.00 16.20 -4.33 0.00 16.80 -5.03 0.00 17.40 -5.53 0.00 17.80 -5.83 0.00 18.00 -6.13 0.00 18.10 -6.33 0.00 18.00 -6.53 0.00 17.90 -6.73 0.00 17.80 -6.73 0.00 17.50 -6.63 0.00 17.10 -6