# vtk DataFile Version 2.0
VTK from Matlab
ASCII
DATASET STRUCTURED_GRID
DIMENSIONS 68 68 1
POINTS 4624 float
-49.50 90.00 0.00 -51.00 90.00 0.00 -52.50 90.00 0.00 -54.00 90.00 0.00 -55.50 90.00 0.00 -57.00 90.00 0.00 -58.50 90.00 0.00 -60.00 90.00 0.00 -61.50 90.00 0.00 -63.00 90.00 0.00 -64.50 90.00 0.00 -66.00 90.00 0.00 -67.50 90.00 0.00 -69.00 90.00 0.00 -70.50 90.00 0.00 -72.00 90.00 0.00 -73.50 90.00 0.00 -75.00 90.00 0.00 -76.50 90.00 0.00 -78.00 90.00 0.00 -79.50 90.00 0.00 -81.00 90.00 0.00 -82.50 90.00 0.00 -84.00 90.00 0.00 -85.50 90.00 0.00 -87.00 90.00 0.00 -88.50 90.00 0.00 -90.00 90.00 0.00 -91.50 90.00 0.00 -93.00 90.00 0.00 -94.50 90.00 0.00 -96.00 90.00 0.00 -97.50 90.00 0.00 -99.00 90.00 0.00 -100.50 90.00 0.00 -102.00 90.00 0.00 -103.50 90.00 0.00 -105.00 90.00 0.00 -106.50 90.00 0.00 -108.00 90.00 0.00 -109.50 90.00 0.00 -111.00 90.00 0.00 -112.50 90.00 0.00 -114.00 90.00 0.00 -115.50 90.00 0.00 -117.00 90.00 0.00 -118.50 90.00 0.00 -120.00 90.00 0.00 -121.50 90.00 0.00 -123.00 90.00 0.00 -124.50 90.00 0.00 -126.00 90.00 0.00 -127.50 90.00 0.00 -129.00 90.00 0.00 -130.50 90.00 0.00 -132.00 90.00 0.00 -133.50 90.00 0.00 -135.00 90.00 0.00 -136.50 90.00 0.00 -138.00 90.00 0.00 -139.50 90.00 0.00 -141.00 90.00 0.00 -142.50 90.00 0.00 -144.00 90.00 0.00 -145.50 90.00 0.00 -147.00 90.00 0.00 -148.50 90.00 0.00 -150.00 90.00 0.00 -49.50 88.50 0.00 -51.00 88.50 0.00 -52.50 88.50 0.00 -54.00 88.50 0.00 -55.50 88.50 0.00 -57.00 88.50 0.00 -58.50 88.50 0.00 -60.00 88.50 0.00 -61.50 88.50 0.00 -63.00 88.50 0.00 -64.50 88.50 0.00 -66.00 88.50 0.00 -67.50 88.50 0.00 -69.00 88.50 0.00 -70.50 88.50 0.00 -72.00 88.50 0.00 -73.50 88.50 0.00 -75.00 88.50 0.00 -76.50 88.50 0.00 -78.00 88.50 0.00 -79.50 88.50 0.00 -81.00 88.50 0.00 -82.50 88.50 0.00 -84.00 88.50 0.00 -85.50 88.50 0.00 -87.00 88.50 0.00 -88.50 88.50 0.00 -90.00 88.50 0.00 -91.50 88.50 0.00 -93.00 88.50 0.00 -94.50 88.50 0.00 -96.00 88.50 0.00 -97.50 88.50 0.00 -99.00 88.50 0.00 -100.50 88.50 0.00 -102.00 88.50 0.00 -103.50 88.50 0.00 -105.00 88.50 0.00 -106.50 88.50 0.00 -108.00 88.50 0.00 -109.50 88.50 0.00 -111.00 88.50 0.00 -112.50 88.50 0.00 -114.00 88.50 0.00 -115.50 88.50 0.00 -117.00 88.50 0.00 -118.50 88.50 0.00 -120.00 88.50 0.00 -121.50 88.50 0.00 -123.00 88.50 0.00 -124.50 88.50 0.00 -126.00 88.50 0.00 -127.50 88.50 0.00 -129.00 88.50 0.00 -130.50 88.50 0.00 -132.00 88.50 0.00 -133.50 88.50 0.00 -135.00 88.50 0.00 -136.50 88.50 0.00 -138.00 88.50 0.00 -139.50 88.50 0.00 -141.00 88.50 0.00 -142.50 88.50 0.00 -144.00 88.50 0.00 -145.50 88.50 0.00 -147.00 88.50 0.00 -148.50 88.50 0.00 -150.00 88.50 0.00 -49.50 87.00 0.00 -51.00 87.00 0.00 -52.50 87.00 0.00 -54.00 87.00 0.00 -55.50 87.00 0.00 -57.00 87.00 0.00 -58.50 87.00 0.00 -60.00 87.00 0.00 -61.50 87.00 0.00 -63.00 87.00 0.00 -64.50 87.00 0.00 -66.00 87.00 0.00 -67.50 87.00 0.00 -69.00 87.00 0.00 -70.50 87.00 0.00 -72.00 87.00 0.00 -73.50 87.00 0.00 -75.00 87.00 0.00 -76.50 87.00 0.00 -78.00 87.00 0.00 -79.50 87.00 0.00 -81.00 87.00 0.00 -82.50 87.00 0.00 -84.00 87.00 0.00 -85.50 87.00 0.00 -87.00 87.00 0.00 -88.50 87.00 0.00 -90.00 87.00 0.00 -91.50 87.00 0.00 -93.00 87.00 0.00 -94.50 87.00 0.00 -96.00 87.00 0.00 -97.50 87.00 0.00 -99.00 87.00 0.00 -100.50 87.00 0.00 -102.00 87.00 0.00 -103.50 87.00 0.00 -105.00 87.00 0.00 -106.50 87.00 0.00 -108.00 87.00 0.00 -109.50 87.00 0.00 -111.00 87.00 0.00 -112.50 87.00 0.00 -114.00 87.00 0.00 -115.50 87.00 0.00 -117.00 87.00 0.00 -118.50 87.00 0.00 -120.00 87.00 0.00 -121.50 87.00 0.00 -123.00 87.00 0.00 -124.50 87.00 0.00 -126.00 87.00 0.00 -127.50 87.00 0.00 -129.00 87.00 0.00 -130.50 87.00 0.00 -132.00 87.00 0.00 -133.50 87.00 0.00 -135.00 87.00 0.00 -136.50 87.00 0.00 -138.00 87.00 0.00 -139.50 87.00 0.00 -141.00 87.00 0.00 -142.50 87.00 0.00 -144.00 87.00 0.00 -145.50 87.00 0.00 -147.00 87.00 0.00 -148.50 87.00 0.00 -150.00 87.00 0.00 -49.50 85.50 0.00 -51.00 85.50 0.00 -52.50 85.50 0.00 -54.00 85.50 0.00 -55.50 85.50 0.00 -57.00 85.50 0.00 -58.50 85.50 0.00 -60.00 85.50 0.00 -61.50 85.50 0.00 -63.00 85.50 0.00 -64.50 85.50 0.00 -66.00 85.50 0.00 -67.50 85.50 0.00 -69.00 85.50 0.00 -70.50 85.50 0.00 -72.00 85.50 0.00 -73.50 85.50 0.00 -75.00 85.50 0.00 -76.50 85.50 0.00 -78.00 85.50 0.00 -79.50 85.50 0.00 -81.00 85.50 0.00 -82.50 85.50 0.00 -84.00 85.50 0.00 -85.50 85.50 0.00 -87.00 85.50 0.00 -88.50 85.50 0.00 -90.00 85.50 0.00 -91.50 85.50 0.00 -93.00 85.50 0.00 -94.50 85.50 0.00 -96.00 85.50 0.00 -97.50 85.50 0.00 -99.00 85.50 0.00 -100.50 85.50 0.00 -102.00 85.50 0.00 -103.50 85.50 0.00 -105.00 85.50 0.00 -106.50 85.50 0.00 -108.00 85.50 0.00 -109.50 85.50 0.00 -111.00 85.50 0.00 -112.50 85.50 0.00 -114.00 85.50 0.00 -115.50 85.50 0.00 -117.00 85.50 0.00 -118.50 85.50 0.00 -120.00 85.50 0.00 -121.50 85.50 0.00 -123.00 85.50 0.00 -124.50 85.50 0.00 -126.00 85.50 0.00 -127.50 85.50 0.00 -129.00 85.50 0.00 -130.50 85.50 0.00 -132.00 85.50 0.00 -133.50 85.50 0.00 -135.00 85.50 0.00 -136.50 85.50 0.00 -138.00 85.50 0.00 -139.50 85.50 0.00 -141.00 85.50 0.00 -142.50 85.50 0.00 -144.00 85.50 0.00 -145.50 85.50 0.00 -147.00 85.50 0.00 -148.50 85.50 0.00 -150.00 85.50 0.00 -49.50 84.00 0.00 -51.00 84.00 0.00 -52.50 84.00 0.00 -54.00 84.00 0.00 -55.50 84.00 0.00 -57.00 84.00 0.00 -58.50 84.00 0.00 -60.00 84.00 0.00 -61.50 84.00 0.00 -63.00 84.00 0.00 -64.50 84.00 0.00 -66.00 84.00 0.00 -67.50 84.00 0.00 -69.00 84.00 0.00 -70.50 84.00 0.00 -72.00 84.00 0.00 -73.50 84.00 0.00 -75.00 84.00 0.00 -76.50 84.00 0.00 -78.00 84.00 0.00 -79.50 84.00 0.00 -81.00 84.00 0.00 -82.50 84.00 0.00 -84.00 84.00 0.00 -85.50 84.00 0.00 -87.00 84.00 0.00 -88.50 84.00 0.00 -90.00 84.00 0.00 -91.50 84.00 0.00 -93.00 84.00 0.00 -94.50 84.00 0.00 -96.00 84.00 0.00 -97.50 84.00 0.00 -99.00 84.00 0.00 -100.50 84.00 0.00 -102.00 84.00 0.00 -103.50 84.00 0.00 -105.00 84.00 0.00 -106.50 84.00 0.00 -108.00 84.00 0.00 -109.50 84.00 0.00 -111.00 84.00 0.00 -112.50 84.00 0.00 -114.00 84.00 0.00 -115.50 84.00 0.00 -117.00 84.00 0.00 -118.50 84.00 0.00 -120.00 84.00 0.00 -121.50 84.00 0.00 -123.00 84.00 0.00 -124.50 84.00 0.00 -126.00 84.00 0.00 -127.50 84.00 0.00 -129.00 84.00 0.00 -130.50 84.00 0.00 -132.00 84.00 0.00 -133.50 84.00 0.00 -135.00 84.00 0.00 -136.50 84.00 0.00 -138.00 84.00 0.00 -139.50 84.00 0.00 -141.00 84.00 0.00 -142.50 84.00 0.00 -144.00 84.00 0.00 -145.50 84.00 0.00 -147.00 84.00 0.00 -148.50 84.00 0.00 -150.00 84.00 0.00 -49.50 82.50 0.00 -51.00 82.50 0.00 -52.50 82.50 0.00 -54.00 82.50 0.00 -55.50 82.50 0.00 -57.00 82.50 0.00 -58.50 82.50 0.00 -60.00 82.50 0.00 -61.50 82.50 0.00 -63.00 82.50 0.00 -64.50 82.50 0.00 -66.00 82.50 0.00 -67.50 82.50 0.00 -69.00 82.50 0.00 -70.50 82.50 0.00 -72.00 82.50 0.00 -73.50 82.50 0.00 -75.00 82.50 0.00 -76.50 82.50 0.00 -78.00 82.50 0.00 -79.50 82.50 0.00 -81.00 82.50 0.00 -82.50 82.50 0.00 -84.00 82.50 0.00 -85.50 82.50 0.00 -87.00 82.50 0.00 -88.50 82.50 0.00 -90.00 82.50 0.00 -91.50 82.50 0.00 -93.00 82.50 0.00 -94.50 82.50 0.00 -96.00 82.50 0.00 -97.50 82.50 0.00 -99.00 82.50 0.00 -100.50 82.50 0.00 -102.00 82.50 0.00 -103.50 82.50 0.00 -105.00 82.50 0.00 -106.50 82.50 0.00 -108.00 82.50 0.00 -109.50 82.50 0.00 -111.00 82.50 0.00 -112.50 82.50 0.00 -114.00 82.50 0.00 -115.50 82.50 0.00 -117.00 82.50 0.00 -118.50 82.50 0.00 -120.00 82.50 0.00 -121.50 82.50 0.00 -123.00 82.50 0.00 -124.50 82.50 0.00 -126.00 82.50 0.00 -127.50 82.50 0.00 -129.00 82.50 0.00 -130.50 82.50 0.00 -132.00 82.50 0.00 -133.50 82.50 0.00 -135.00 82.50 0.00 -136.50 82.50 0.00 -138.00 82.50 0.00 -139.50 82.50 0.00 -141.00 82.50 0.00 -142.50 82.50 0.00 -144.00 82.50 0.00 -145.50 82.50 0.00 -147.00 82.50 0.00 -148.50 82.50 0.00 -150.00 82.50 0.00 -49.50 81.00 0.00 -51.00 81.00 0.00 -52.50 81.00 0.00 -54.00 81.00 0.00 -55.50 81.00 0.00 -57.00 81.00 0.00 -58.50 81.00 0.00 -60.00 81.00 0.00 -61.50 81.00 0.00 -63.00 81.00 0.00 -64.50 81.00 0.00 -66.00 81.00 0.00 -67.50 81.00 0.00 -69.00 81.00 0.00 -70.50 81.00 0.00 -72.00 81.00 0.00 -73.50 81.00 0.00 -75.00 81.00 0.00 -76.50 81.00 0.00 -78.00 81.00 0.00 -79.50 81.00 0.00 -81.00 81.00 0.00 -82.50 81.00 0.00 -84.00 81.00 0.00 -85.50 81.00 0.00 -87.00 81.00 0.00 -88.50 81.00 0.00 -90.00 81.00 0.00 -91.50 81.00 0.00 -93.00 81.00 0.00 -94.50 81.00 0.00 -96.00 81.00 0.00 -97.50 81.00 0.00 -99.00 81.00 0.00 -100.50 81.00 0.00 -102.00 81.00 0.00 -103.50 81.00 0.00 -105.00 81.00 0.00 -106.50 81.00 0.00 -108.00 81.00 0.00 -109.50 81.00 0.00 -111.00 81.00 0.00 -112.50 81.00 0.00 -114.00 81.00 0.00 -115.50 81.00 0.00 -117.00 81.00 0.00 -118.50 81.00 0.00 -120.00 81.00 0.00 -121.50 81.00 0.00 -123.00 81.00 0.00 -124.50 81.00 0.00 -126.00 81.00 0.00 -127.50 81.00 0.00 -129.00 81.00 0.00 -130.50 81.00 0.00 -132.00 81.00 0.00 -133.50 81.00 0.00 -135.00 81.00 0.00 -136.50 81.00 0.00 -138.00 81.00 0.00 -139.50 81.00 0.00 -141.00 81.00 0.00 -142.50 81.00 0.00 -144.00 81.00 0.00 -145.50 81.00 0.00 -147.00 81.00 0.00 -148.50 81.00 0.00 -150.00 81.00 0.00 -49.50 79.50 0.00 -51.00 79.50 0.00 -52.50 79.50 0.00 -54.00 79.50 0.00 -55.50 79.50 0.00 -57.00 79.50 0.00 -58.50 79.50 0.00 -60.00 79.50 0.00 -61.50 79.50 0.00 -63.00 79.50 0.00 -64.50 79.50 0.00 -66.00 79.50 0.00 -67.50 79.50 0.00 -69.00 79.50 0.00 -70.50 79.50 0.00 -72.00 79.50 0.00 -73.50 79.50 0.00 -75.00 79.50 0.00 -76.50 79.50 0.00 -78.00 79.50 0.00 -79.50 79.50 0.00 -81.00 79.50 0.00 -82.50 79.50 0.00 -84.00 79.50 0.00 -85.50 79.50 0.00 -87.00 79.50 0.00 -88.50 79.50 0.00 -90.00 79.50 0.00 -91.50 79.50 0.00 -93.00 79.50 0.00 -94.50 79.50 0.00 -96.00 79.50 0.00 -97.50 79.50 0.00 -99.00 79.50 0.00 -100.50 79.50 0.00 -102.00 79.50 0.00 -103.50 79.50 0.00 -105.00 79.50 0.00 -106.50 79.50 0.00 -108.00 79.50 0.00 -109.50 79.50 0.00 -111.00 79.50 0.00 -112.50 79.50 0.00 -114.00 79.50 0.00 -115.50 79.50 0.00 -117.00 79.50 0.00 -118.50 79.50 0.00 -120.00 79.50 0.00 -121.50 79.50 0.00 -123.00 79.50 0.00 -124.50 79.50 0.00 -126.00 79.50 0.00 -127.50 79.50 0.00 -129.00 79.50 0.00 -130.50 79.50 0.00 -132.00 79.50 0.00 -133.50 79.50 0.00 -135.00 79.50 0.00 -136.50 79.50 0.
[...]
POINT_DATA 4624
VECTORS wind1 float
1.42 -1.45 0.00 1.52 -1.35 0.00 1.52 -1.35 0.00 1.52 -1.35 0.00 1.62 -1.25 0.00 1.62 -1.25 0.00 1.62 -1.15 0.00 1.72 -1.15 0.00 1.72 -1.05 0.00 1.72 -1.05 0.00 1.82 -0.95 0.00 1.82 -0.95 0.00 1.82 -0.85 0.00 1.82 -0.85 0.00 1.92 -0.85 0.00 1.92 -0.75 0.00 1.92 -0.75 0.00 1.92 -0.65 0.00 1.92 -0.65 0.00 1.92 -0.55 0.00 2.02 -0.45 0.00 2.02 -0.45 0.00 2.02 -0.35 0.00 2.02 -0.35 0.00 2.02 -0.25 0.00 2.02 -0.25 0.00 2.02 -0.15 0.00 2.02 -0.15 0.00 2.02 -0.05 0.00 2.02 -0.05 0.00 2.02 0.05 0.00 2.02 0.05 0.00 2.02 0.15 0.00 2.02 0.15 0.00 2.02 0.25 0.00 2.02 0.25 0.00 2.02 0.35 0.00 2.02 0.45 0.00 2.02 0.45 0.00 2.02 0.55 0.00 1.92 0.55 0.00 1.92 0.65 0.00 1.92 0.65 0.00 1.92 0.75 0.00 1.92 0.75 0.00 1.82 0.85 0.00 1.82 0.85 0.00 1.82 0.95 0.00 1.82 0.95 0.00 1.82 1.05 0.00 1.72 1.05 0.00 1.72 1.05 0.00 1.72 1.15 0.00 1.62 1.15 0.00 1.62 1.25 0.00 1.62 1.25 0.00 1.52 1.35 0.00 1.52 1.35 0.00 1.52 1.35 0.00 1.42 1.45 0.00 1.42 1.45 0.00 1.42 1.55 0.00 1.32 1.55 0.00 1.32 1.55 0.00 1.22 1.65 0.00 1.22 1.65 0.00 1.12 1.65 0.00 1.12 1.65 0.00 -0.08 -0.25 0.00 -0.18 -0.15 0.00 -0.18 -0.15 0.00 -0.28 -0.15 0.00 -0.28 -0.15 0.00 -0.28 -0.15 0.00 -0.38 -0.15 0.00 -0.38 -0.15 0.00 -0.38 -0.15 0.00 -0.48 -0.15 0.00 -0.48 -0.15 0.00 -0.48 -0.25 0.00 -0.48 -0.25 0.00 -0.48 -0.25 0.00 -0.48 -0.25 0.00 -0.48 -0.25 0.00 -0.48 -0.25 0.00 -0.48 -0.25 0.00 -0.48 -0.25 0.00 -0.48 -0.25 0.00 -0.48 -0.25 0.00 -0.38 -0.25 0.00 -0.38 -0.35 0.00 -0.38 -0.25 0.00 -0.38 -0.25 0.00 -0.28 -0.25 0.00 -0.28 -0.35 0.00 -0.28 -0.25 0.00 -0.18 -0.25 0.00 -0.18 -0.25 0.00 -0.08 -0.25 0.00 -0.08 -0.15 0.00 0.02 -0.25 0.00 0.02 -0.15 0.00 0.12 -0.15 0.00 0.12 -0.05 0.00 0.12 -0.05 0.00 0.22 -0.05 0.00 0.22 -0.05 0.00 0.22 0.05 0.00 0.32 0.05 0.00 0.32 0.15 0.00 0.32 0.15 0.00 0.32 0.25 0.00 0.42 0.25 0.00 0.42 0.25 0.00 0.42 0.25 0.00 0.52 0.35 0.00 0.52 0.35 0.00 0.52 0.35 0.00 0.52 0.45 0.00 0.62 0.45 0.00 0.62 0.45 0.00 0.52 0.45 0.00 0.62 0.55 0.00 0.62 0.55 0.00 0.62 0.55 0.00 0.62 0.55 0.00 0.72 0.55 0.00 0.72 0.65 0.00 0.72 0.65 0.00 0.72 0.65 0.00 0.72 0.65 0.00 0.82 0.75 0.00 0.82 0.65 0.00 0.82 0.75 0.00 0.82 0.65 0.00 0.82 0.75 0.00 -4.38 1.95 0.00 -4.58 1.85 0.00 -4.88 1.75 0.00 -4.98 1.65 0.00 -5.28 1.45 0.00 -5.38 1.35 0.00 -5.58 1.15 0.00 -5.68 1.05 0.00 -5.88 0.85 0.00 -5.88 0.65 0.00 -6.08 0.45 0.00 -6.08 0.25 0.00 -6.18 0.05 0.00 -6.18 -0.05 0.00 -6.18 -0.35 0.00 -6.18 -0.45 0.00 -6.18 -0.75 0.00 -6.18 -0.85 0.00 -6.08 -1.05 0.00 -5.98 -1.15 0.00 -5.98 -1.45 0.00 -5.78 -1.55 0.00 -5.68 -1.65 0.00 -5.58 -1.75 0.00 -5.48 -1.95 0.00 -5.28 -1.95 0.00 -5.18 -2.15 0.00 -4.88 -2.15 0.00 -4.78 -2.25 0.00 -4.58 -2.25 0.00 -4.38 -2.35 0.00 -4.18 -2.25 0.00 -4.08 -2.35 0.00 -3.78 -2.25 0.00 -3.68 -2.25 0.00 -3.48 -2.15 0.00 -3.28 -2.15 0.00 -3.08 -2.05 0.00 -2.98 -2.05 0.00 -2.78 -1.85 0.00 -2.68 -1.85 0.00 -2.48 -1.75 0.00 -2.38 -1.65 0.00 -2.18 -1.55 0.00 -2.08 -1.55 0.00 -1.88 -1.35 0.00 -1.78 -1.35 0.00 -1.58 -1.15 0.00 -1.58 -1.15 0.00 -1.38 -1.05 0.00 -1.38 -1.05 0.00 -1.18 -0.95 0.00 -1.08 -0.85 0.00 -0.98 -0.85 0.00 -0.88 -0.75 0.00 -0.78 -0.75 0.00 -0.78 -0.85 0.00 -0.58 -0.75 0.00 -0.58 -0.85 0.00 -0.38 -0.75 0.00 -0.38 -0.85 0.00 -0.18 -0.75 0.00 -0.08 -0.75 0.00 0.02 -0.75 0.00 0.12 -0.75 0.00 0.22 -0.75 0.00 0.32 -0.85 0.00 0.52 -0.75 0.00 -8.68 4.25 0.00 -9.08 4.05 0.00 -9.28 3.85 0.00 -9.58 3.65 0.00 -9.88 3.35 0.00 -10.08 3.05 0.00 -10.28 2.75 0.00 -10.38 2.45 0.00 -10.58 2.05 0.00 -10.68 1.75 0.00 -10.78 1.35 0.00 -10.78 1.05 0.00 -10.88 0.65 0.00 -10.78 0.25 0.00 -10.78 -0.15 0.00 -10.78 -0.55 0.00 -10.68 -0.95 0.00 -10.58 -1.25 0.00 -10.58 -1.65 0.00 -10.38 -2.05 0.00 -10.28 -2.35 0.00 -10.08 -2.65 0.00 -9.98 -3.05 0.00 -9.78 -3.25 0.00 -9.58 -3.55 0.00 -9.38 -3.75 0.00 -9.08 -4.05 0.00 -8.88 -4.25 0.00 -8.68 -4.35 0.00 -8.38 -4.55 0.00 -8.18 -4.65 0.00 -7.88 -4.65 0.00 -7.58 -4.75 0.00 -7.38 -4.75 0.00 -7.08 -4.75 0.00 -6.78 -4.65 0.00 -6.48 -4.65 0.00 -6.28 -4.55 0.00 -5.98 -4.45 0.00 -5.78 -4.35 0.00 -5.58 -4.25 0.00 -5.28 -4.05 0.00 -5.08 -3.95 0.00 -4.88 -3.75 0.00 -4.68 -3.75 0.00 -4.38 -3.55 0.00 -4.18 -3.45 0.00 -4.08 -3.25 0.00 -3.88 -3.15 0.00 -3.68 -3.05 0.00 -3.48 -2.95 0.00 -3.28 -2.85 0.00 -3.08 -2.75 0.00 -2.98 -2.75 0.00 -2.78 -2.65 0.00 -2.58 -2.65 0.00 -2.38 -2.65 0.00 -2.18 -2.65 0.00 -1.98 -2.65 0.00 -1.78 -2.65 0.00 -1.58 -2.75 0.00 -1.38 -2.65 0.00 -1.18 -2.75 0.00 -0.98 -2.75 0.00 -0.68 -2.85 0.00 -0.48 -2.85 0.00 -0.28 -2.85 0.00 -0.08 -2.85 0.00 -11.28 5.25 0.00 -11.38 5.05 0.00 -11.58 4.85 0.00 -11.68 4.55 0.00 -11.78 4.25 0.00 -11.88 4.05 0.00 -11.88 3.65 0.00 -11.88 3.35 0.00 -11.88 2.95 0.00 -11.78 2.65 0.00 -11.68 2.15 0.00 -11.58 1.85 0.00 -11.58 1.35 0.00 -11.38 0.95 0.00 -11.38 0.45 0.00 -11.18 0.05 0.00 -11.18 -0.45 0.00 -10.98 -0.85 0.00 -10.98 -1.35 0.00 -10.78 -1.75 0.00 -10.78 -2.25 0.00 -10.58 -2.65 0.00 -10.58 -3.15 0.00 -10.48 -3.55 0.00 -10.38 -3.95 0.00 -10.18 -4.25 0.00 -10.18 -4.65 0.00 -9.98 -4.85 0.00 -9.88 -5.25 0.00 -9.68 -5.35 0.00 -9.58 -5.65 0.00 -9.38 -5.75 0.00 -9.18 -5.95 0.00 -8.98 -5.95 0.00 -8.78 -6.05 0.00 -8.58 -6.05 0.00 -8.38 -6.15 0.00 -8.18 -6.05 0.00 -7.98 -6.05 0.00 -7.68 -5.95 0.00 -7.58 -5.85 0.00 -7.28 -5.75 0.00 -7.08 -5.65 0.00 -6.88 -5.55 0.00 -6.68 -5.45 0.00 -6.38 -5.25 0.00 -6.18 -5.25 0.00 -5.98 -5.05 0.00 -5.78 -5.05 0.00 -5.48 -4.85 0.00 -5.28 -4.85 0.00 -4.98 -4.75 0.00 -4.78 -4.75 0.00 -4.48 -4.65 0.00 -4.28 -4.75 0.00 -3.98 -4.65 0.00 -3.68 -4.75 0.00 -3.38 -4.65 0.00 -3.08 -4.75 0.00 -2.78 -4.75 0.00 -2.48 -4.85 0.00 -2.18 -4.85 0.00 -1.88 -5.05 0.00 -1.58 -4.95 0.00 -1.28 -5.05 0.00 -0.88 -4.95 0.00 -0.58 -5.05 0.00 -0.28 -4.95 0.00 -10.68 4.95 0.00 -10.68 4.75 0.00 -10.68 4.55 0.00 -10.58 4.35 0.00 -10.48 4.15 0.00 -10.38 3.95 0.00 -10.28 3.65 0.00 -10.18 3.35 0.00 -10.08 3.05 0.00 -9.98 2.75 0.00 -9.88 2.35 0.00 -9.78 2.05 0.00 -9.68 1.65 0.00 -9.68 1.35 0.00 -9.48 0.95 0.00 -9.48 0.55 0.00 -9.38 0.15 0.00 -9.28 -0.25 0.00 -9.18 -0.65 0.00 -9.18 -1.15 0.00 -9.08 -1.55 0.00 -9.08 -2.05 0.00 -9.08 -2.55 0.00 -9.08 -2.95 0.00 -9.08 -3.35 0.00 -9.08 -3.75 0.00 -9.18 -4.15 0.00 -9.18 -4.45 0.00 -9.08 -4.65 0.00 -9.08 -4.85 0.00 -8.98 -5.15 0.00 -8.98 -5.25 0.00 -8.88 -5.45 0.00 -8.78 -5.55 0.00 -8.68 -5.75 0.00 -8.48 -5.75 0.00 -8.38 -5.85 0.00 -8.28 -5.95 0.00 -8.08 -6.05 0.00 -7.98 -6.05 0.00 -7.78 -6.15 0.00 -7.58 -6.25 0.00 -7.48 -6.25 0.00 -7.28 -6.25 0.00 -7.08 -6.35 0.00 -6.88 -6.35 0.00 -6.68 -6.45 0.00 -6.48 -6.35 0.00 -6.18 -6.45 0.00 -5.98 -6.45 0.00 -5.68 -6.45 0.00 -5.38 -6.45 0.00 -5.08 -6.45 0.00 -4.78 -6.55 0.00 -4.48 -6.55 0.00 -4.18 -6.55 0.00 -3.88 -6.65 0.00 -3.48 -6.65 0.00 -3.18 -6.75 0.00 -2.78 -6.75 0.00 -2.48 -6.85 0.00 -2.08 -6.85 0.00 -1.68 -6.95 0.00 -1.38 -6.95 0.00 -0.98 -6.95 0.00 -0.68 -6.85 0.00 -0.28 -6.75 0.00 0.02 -6.65 0.00 -9.28 4.35 0.00 -9.18 4.25 0.00 -9.08 3.95 0.00 -8.88 3.85 0.00 -8.78 3.65 0.00 -8.58 3.55 0.00 -8.38 3.35 0.00 -8.18 3.25 0.00 -8.08 2.95 0.00 -7.88 2.75 0.00 -7.88 2.45 0.00 -7.78 2.25 0.00 -7.78 1.85 0.00 -7.78 1.65 0.00 -7.78 1.25 0.00 -7.78 0.95 0.00 -7.68 0.55 0.00 -7.68 0.15 0.00 -7.58 -0.25 0.00 -7.48 -0.75 0.00 -7.48 -1.25 0.00 -7.38 -1.55 0.00 -7.38 -2.05 0.00 -7.38 -2.35 0.00 -7.38 -2.75 0.00 -7.38 -3.05 0.00 -7.38 -3.25 0.00 -7.38 -3.45 0.00 -7.38 -3.75 0.00 -7.28 -3.85 0.00 -7.28 -4.05 0.00 -7.08 -4.15 0.00 -7.08 -4.35 0.00 -6.98 -4.45 0.00 -6.88 -4.75 0.00 -6.68 -4.85 0.00 -6.68 -5.15 0.00 -6.48 -5.25 0.00 -6.48 -5.55 0.00 -6.28 -5.65 0.00 -6.28 -5.95 0.00 -6.08 -6.15 0.00 -6.08 -6.45 0.00 -5.88 -6.55 0.00 -5.78 -6.75 0.00 -5.58 -6.85 0.00 -5.38 -7.15 0.00 -5.18 -7.15 0.00 -4.98 -7.35 0.00 -4.68 -7.45 0.00 -4.48 -7.55 0.00 -4.18 -7.65 0.00 -3.88 -7.75 0.00 -3.58 -7.75 0.00 -3.38 -7.95 0.00 -3.08 -7.95 0.00 -2.78 -8.05 0.00 -2.48 -8.05 0.00 -2.18 -8.15 0.00 -1.88 -8.15 0.00 -1.48 -8.25 0.00 -1.18 -8.25 0.00 -0.88 -8.35 0.00 -0.48 -8.15 0.00 -0.18 -8.15 0.00 0.22 -8.05 0.00 0.52 -7.95 0.00 0.82 -7.65 0.00 -7.98 3.85 0.00 -7.98 3.55 0.00 -7.88 3.35 0.00 -7.78 3.15 0.00 -7.68 2.85 0.00 -7.58 2.65 0.00 -7.38 2.45 0.00 -7.18 2.25 0.00 -7.08 2.05 0.00 -6.88 1.85 0.00 -6.68 1.55 0.00 -6.58 1.25 0.00 -6.48 0.95 0.00 -6.48 0.65 0.00 -6.38 0.25 0.00 -6.28 0.05 0.00 -6.18 -0.35 0.00 -5.98 -0.65 0.00 -5.78 -0.95 0.00 -5.68 -1.25 0.00 -5.48 -1.65 0.00 -5.28 -1.85 0.00 -5.08 -2.05 0.00 -4.98 -2.25 0.00 -4.88 -2.45 0.00 -4.68 -2.55 0.00 -4.58 -2.75 0.00 -4.58 -2.75 0.00 -4.48 -2.95 0.00 -4.38 -2.95 0.00 -4.28 -3.15 0.00 -4.18 -3.25 0.00 -4.18 -3.55 0.00 -4.08 -3.65 0.00 -3.98 -3.95 0.00 -3.88 -4.25 0.00 -3.88 -4.65 0.00 -3.78 -4.85 0.00 -3.68 -5.25 0.00 -3.68 -5.55 0.00 -3.58 -5.85 0.00 -3.48 -6.15 0.00 -3.38 -6.45 0.00 -3.28 -6.65 0.00 -3.08 -6.95 0.00 -2.88 -7.15 0.00 -2.68 -7.35 0.00 -2.48 -7.45 0.00 -2.28 -7.75 0.00 -2.08 -7.85 0.00 -1.88 -7.95 0.00 -1.68 -8.05 0.00 -1.48 -8.15 0.00 -1.28 -8.25 0.00 -1.08 -8.35 0.00 -0.88 -8.35 0.00 -0.68 -8.45 0.00 -0.38 -8.55 0.00 -0.18 -8.55 0.00 0.02 -8.65 0.00 0.32 -8.65 0.00 0.52 -8.65 0.00 0.82 -8.65 0.00 1.12 -8.55 0.00 1.42 -8.45 0.00 1.62 -8.25 0.00 1.92 -8.05 0.00 2.12 -7.75 0.00 -6.98 1.95 0.00 -6.78 1.85 0.00 -6.78 1.55 0.00 -6.58 1.45 0.00 -6.38 1.25 0.00 -6.08 1.25 0.00 -5.78 1.05 0.00 -5.48 0.95 0.00 -5.18 0.75 0.00 -4.88 0.55 0.00 -4.58 0.25 0.00 -4.38 0.05 0.00 -4.08 -0.35 0.00 -3.88 -0.55 0.00 -3.68 -0.95 0.00 -3.38 -1.15 0.00 -3.28 -1.55 0.00 -2.98 -1.65 0.00 -2.78 -1.95 0.00 -2.58 -2.05 0.00 -2.38 -2.15 0.00 -2.18 -2.25 0.00 -2.08 -2.35 0.00 -1.88 -2.35 0.00 -1.88 -2.45 0.00 -1.78 -2.35 0.00 -1.68 -2.35 0.00 -1.68 -2.35 0.00 -1.58 -2.45 0.00 -1.58 -2.45 0.00 -1.58 -2.65 0.00 -1.48 -2.85 0.00 -1.48 -3.15 0.00 -1.38 -3.35 0.00 -1.38 -3.75 0.00 -1.28 -3.95 0.00 -1.18 -4.35 0.00 -1.08 -4.65 0.00 -1.08 -5.05 0.00 -0.98 -5.35 0.00 -0.88 -5.75 0.00 -0.68 -5.95 0.00 -0.68 -6.35 0.00 -0.48 -6.55 0.00 -0.38 -6.85 0.00 -0.18 -7.05 0.00 -0.08 -7.35 0.00 0.12 -7.45 0.00 0.22 -7.75 0.00 0.42 -7.85 0.00 0.62 -8.05 0.00 0.82 -8.15 0.00 0.92 -8.25 0.00 1.12 -8.35 0.00 1.22 -8.45 0.00 1.42 -8.45 0.00 1.62 -8.55 0.00 1.82 -8.55 0.00 1.92 -8.65 0.00 2.12 -8.55 0.00 2.22 -8.55 0.00 2.42 -8.45 0.00 2.52 -8.35 0.00 2.72 -8.15 0.00 2.82 -8.05 0.00 3.02 -7.65 0.00 3.02 -7.45 0.00 3.12 -7.05 0.00 -4.58 -0.05 0.00 -4.28 -0.15 0.00 -3.98 -0.25 0.00 -3.58 -0.15 0.00 -3.18 -0.15 0.00 -2.88 0.05 0.00 -2.58 -0.05 0.00 -2.38 -0.05 0.00 -2.08 -0.25 0.00 -1.88 -0.35 0.00 -1.58 -0.65 0.00 -1.38 -0.95 0.00 -1.08 -1.35 0.00 -0.78 -1.65 0.00 -0.58 -1.95 0.00 -0.28 -2.15 0.00 -0.08 -2.45 0.00 0.12 -2.45 0.00 0.22 -2.55 0.00 0.42 -2.45 0.00 0.52 -2.55 0.00 0.62 -2.45 0.00 0.72 -2.45 0.00 0.82 -2.45 0.00 0.92 -2.55 0.00 1.02 -2.45 0.00 1.02 -2.55 0.00 1.12 -2.55 0.00 1.22 -2.65 0.00 1.22 -2.75 0.00 1.32 -2.95 0.00 1.42 -3.05 0.00 1.52 -3.25 0.00 1.62 -3.45 0.00 1.62 -3.75 0.00 1.62 -3.95 0.00 1.72 -4.25 0.00 1.72 -4.45 0.00 1.72 -4.75 0.00 1.72 -5.05 0.00 1.72 -5.35 0.00 1.72 -5.65 0.00 1.72 -5.95 0.00 1.72 -6.25 0.00 1.82 -6.55 0.00 1.82 -6.85 0.00 1.92 -7.05 0.00 2.02 -7.35 0.00 2.02 -7.55 0.00 2.12 -7.75 0.00 2.22 -7.95 0.00 2.32 -8.15 0.00 2.42 -8.25 0.00 2.52 -8.35 0.00 2.72 -8.45 0.00 2.82 -8.35 0.00 2.92 -8.35 0.00 3.02 -8.35 0.00 3.12 -8.25 0.00 3.12 -8.05 0.00 3.22 -7.85 0.00 3.22 -7.55 0.00 3.22 -7.35 0.00 3.12 -6.95 0.00 3.12 -6.65 0.00 3.02 -6.25 0.00 2.92 -5.75 0.00 2.82 -5.35 0.00 -1.08 -0.85 0.00 -0.78 -0.95 0.00 -0.68 -0.95 0.00 -0.48 -0.85 0.00 -0.38 -0.75 0.00 -0.38 -0.75 0.00 -0.28 -0.85 0.00 -0.18 -0.95 0.00 -0.08 -1.25 0.00 0.22 -1.45 0.00 0.52 -1.85 0.00 0.82 -2.15 0.00 1.22 -2.55 0.00 1.62 -2.75 0.00 1.92 -2.95 0.00 2.32 -3.05 0.00 2.52 -3.15 0.00 2.82 -3.05 0.00 2.92 -3.15 0.00 3.12 -3.05 0.00 3.32 -3.15 0.00 3.52 -3.05 0.00 3.82 -3.25 0.00 4.02 -3.25 0.00 4.32 -3.35 0.00 4.52 -3.25 0.00 4.62 -3.45 0.00 4.82 -3.35 0.00 4.92 -3.25 0.00 5.02 -3.25 0.00 5.02 -3.25 0.00 5.02 -3.25 0.00 4.82 -3.25 0.00 4.72 -3.25 0.00 4.52 -3.35 0.00 4.32 -3.45 0.00 4.12 -3.65 0.00 3.92 -3.75 0.00 3.62 -3.95 0.00 3.52 -4.25 0.00 3.32 -4.55 0.00 3.32 -4.85 0.00 3.22 -5.25 0.00 3.22 -5.65 0.00 3.12 -5.95 0.00 3.22 -6.35 0.00 3.22 -6.65 0.00 3.22 -6.95 0.00 3.22 -7.35 0.00 3.32 -7.45 0.00 3.42 -7.65 0.00 3.52 -7.85 0.00 3.52 -7.95 0.00 3.72 -7.95 0.00 3.72 -8.05 0.00 3.82 -7.85 0.00 3.92 -7.75 0.00 3.92 -7.55 0.00 3.92 -7.25 0.00 3.92 -6.85 0.00 3.82 -6.55 0.00 3.72 -6.05 0.00 3.62 -5.65 0.00 3.52 -5.15 0.00 3.32 -4.75 0.00 3.12 -4.25 0.00 2.92 -3.75 0.00 2.82 -3.25 0.00 1.82 -0.75 0.00 1.72 -0.85 0.00 1.62 -0.75 0.00 1.42 -0.65 0.00 1.42 -0.75 0.00 1.52 -0.75 0.00 1.62 -1.05 0.00 1.82 -1.25 0.00 2.12 -1.75 0.00 2.52 -2.15 0.00 2.92 -2.65 0.00 3.42 -3.05 0.00 3.92 -3.55 0.00 4.32 -3.75 0.00 4.72 -4.05 0.00 5.02 -4.15 0.00 5.32 -4.25 0.00 5.62 -4.35 0.00 5.92 -4.55 0.00 6.32 -4.65 0.00 6.72 -4.85 0.00 7.12 -4.85 0.00 7.52 -4.95 0.00 7.82 -4.85 0.00 8.12 -4.75 0.00 8.32 -4.45 0.00 8.42 -4.15 0.00 8.42 -3.75 0.00 8.32 -3.45 0.00 8.12 -3.05 0.00 7.82 -2.75 0.00 7.52 -2.45 0.00 7.22 -2.25 0.00 6.82 -2.05 0.00 6.42 -1.95 0.00 6.02 -1.85 0.00 5.52 -1.95 0.00 5.22 -2.15 0.00 4.82 -2.45 0.00 4.52 -2.85 0.00 4.22 -3.35 0.00 4.12 -3.85 0.00 4.02 -4.45 0.00 4.02 -4.95 0.00 4.02 -5.55 0.00 4.12 -5.95 0.00 4.22 -6.45 0.00 4.42 -6.75 0.00 4.62 -7.05 0.00 4.82 -7.25 0.00 5.02 -7.35 0.00 5.22 -7.45 0.00 5.42 -7.45 0.00 5.62 -7.35 0.00 5.72 -7.25 0.00 5.82 -7.05 0.00 5.92 -6.75 0.00 5.92 -6.35 0.00 5.92 -5.95 0.00 5.92 -5.55 0.00 5.82 -5.15 0.00 5.72 -4.65 0.00 5.62 -4.15 0.00 5.52 -3.65 0.00 5.42 -3.25 0.00 5.32 -2.85 0.00 5.32 -2.55 0.00 5.22 -2.25 0.00 3.02 -0.35 0.00 2.92 -0.45 0.00 2.92 -0.55 0.00 2.92 -0.65 0.00 3.12 -0.95 0.00 3.32 -1.15 0.00 3.62 -1.65 0.00 4.02 -2.05 0.00 4.42 -2.75 0.00 5.02 -3.25 0.00 5.52 -4.05 0.00 6.12 -4.45 0.00 6.52 -4.95 0.00 7.02 -5.25 0.00 7.32 -5.55 0.00 7.82 -5.65 0.00 8.22 -5.85 0.00 8.72 -5.95 0.00 9.22 -6.15 0.00 9.72 -6.25 0.00 10.12 -6.35 0.00 10.62 -6.15 0.00 10.92 -6.05 0.00 11.12 -5.65 0.00 11.22 -5.25 0.00 11.22 -4.65 0.00 11.12 -4.05 0.00 10.92 -3.55 0.00 10.72 -2.95 0.00 10.52 -2.45 0.00 10.22 -2.05 0.00 9.92 -1.55 0.00 9.62 -1.15 0.00 9.42 -0.85 0.00 9.02 -0.65 0.00 8.72 -0.45 0.00 8.32 -0.45 0.00 8.02 -0.55 0.00 7.62 -0.95 0.00 7.32 -1.35 0.00 6.92 -1.95 0.00 6.72 -2.65 0.00 6.52 -3.45 0.00 6.52 -4.25 0.00 6.52 -5.05 0.00 6.62 -5.65 0.00 6.82 -6.25 0.00 7.02 -6.65 0.00 7.32 -7.05 0.00 7.52 -7.15 0.00 7.82 -7.35 0.00 8.02 -7.25 0.00 8.22 -7.25 0.00 8.42 -7.05 0.00 8.52 -6.85 0.00 8.72 -6.45 0.00 8.82 -6.05 0.00 8.82 -5.65 0.00 8.92 -5.15 0.00 8.82 -4.65 0.00 8.82 -4.15 0.00 8.72 -3.65 0.00 8.62 -3.25 0.00 8.62 -2.85 0.00 8.52 -2.45 0.00 8.52 -2.25 0.00 8.52 -2.15 0.00 8.52 -1.95 0.00 4.02 -0.05 0.00 4.02 -0.45 0.00 4.12 -0.85 0.00 4.32 -1.25 0.00 4.62 -1.85 0.00 5.02 -2.35 0.00 5.52 -3.05 0.00 6.12 -3.65 0.00 6.72 -4.35 0.00 7.32 -4.95 0.00 7.92 -5.55 0.00 8.52 -6.05 0.00 9.12 -6.45 0.00 9.72 -6.75 0.00 10.32 -6.95 0.00 11.02 -7.05 0.00 11.62 -7.15 0.00 12.12 -7.15 0.00 12.62 -7.15 0.00 12.92 -6.95 0.00 13.22 -6.75 0.00 13.42 -6.45 0.00 13.62 -6.05 0.00 13.72 -5.55 0.00 13.62 -5.05 0.00 13.52 -4.45 0.00 13.22 -3.85 0.00 13.02 -3.35 0.00 12.82 -2.85 0.00 12.72 -2.35 0.00 12.62 -1.85 0.00 12.52 -1.35 0.00 12.42 -0.95 0.00 12.22 -0.45 0.00 12.12 -0.25 0.00 11.92 -0.05 0.00 11.82 0.05 0.00 11.62 0.05 0.00 11.42 -0.25 0.00 11.12 -0.55 0.00 10.92 -1.05 0.00 10.62 -1.75 0.00 10.42 -2.55 0.00 10.22 -3.45 0.00 10.12 -4.35 0.00 10.02 -5.05 0.00 10.12 -5.85 0.00 10.22 -6.45 0.00 10.32 -6.95 0.00 10.52 -7.15 0.00 10.72 -7.35 0.00 10.82 -7.35 0.00 11.02 -7.35 0.00 11.12 -7.05 0.00 11.22 -6.75 0.00 11.32 -6.35 0.00 11.32 -5.85 0.00 11.32 -5.25 0.00 11.22 -4.75 0.00 11.12 -4.25 0.00 11.02 -3.75 0.00 11.02 -3.35 0.00 10.92 -2.95 0.00 10.82 -2.65 0.00 10.72 -2.35 0.00 10.72 -2.25 0.00 10.82 -2.15 0.00 10.92 -1.95 0.00 5.12 -0.15 0.00 5.22 -0.95 0.00 5.42 -1.75 0.00 5.82 -2.45 0.00 6.42 -3.25 0.00 7.12 -3.95 0.00 7.72 -4.75 0.00 8.52 -5.45 0.00 9.12 -6.25 0.00 9.82 -6.75 0.00 10.52 -7.35 0.00 11.32 -7.65 0.00 12.12 -7.95 0.00 12.92 -8.05 0.00 13.62 -8.25 0.00 14.32 -8.15 0.00 14.82 -8.05 0.00 15.22 -7.75 0.00 15.42 -7.65 0.00 15.62 -7.15 0.00 15.82 -6.85 0.00 16.02 -6.35 0.00 16.02 -5.85 0.00 16.02 -5.35 0.00 15.72 -4.75 0.00 15.52 -4.15 0.00 15.22 -3.55 0.00 14.92 -2.95 0.00 14.72 -2.35 0.00 14.52 -1.75 0.00 14.32 -1.25 0.00 14.22 -0.65 0.00 13.92 -0.25 0.00 13.82 0.05 0.00 13.62 0.25 0.00 13.62 0.25 0.00 13.62 0.15 0.00 13.72 0.05 0.00 13.72 -0.35 0.00 13.82 -0.55 0.00 13.72 -0.95 0.00 13.62 -1.45 0.00 13.42 -2.15 0.00 13.32 -2.95 0.00 13.12 -3.75 0.00 13.12 -4.55 0.00 13.02 -5.25 0.00 12.92 -5.95 0.00 12.92 -6.45 0.00 12.92 -6.85 0.00 12.92 -7.05 0.00 12.92 -7.15 0.00 12.92 -7.05 0.00 13.02 -6.75 0.00 13.02 -6.45 0.00 13.02 -5.95 0.00 13.02 -5.45 0.00 13.02 -4.85 0.00 12.92 -4.25 0.00 12.92 -3.65 0.00 12.72 -3.05 0.00 12.52 -2.55 0.00 12.32 -2.15 0.00 12.12 -1.85 0.00 12.02 -1.95 0.00 12.02 -2.05 0.00 12.12 -2.25 0.00 12.42 -2.35 0.00 6.02 -0.85 0.00 6.32 -1.95 0.00 6.82 -3.15 0.00 7.52 -4.15 0.00 8.42 -5.05 0.00 9.22 -5.95 0.00 10.02 -6.85 0.00 10.82 -7.55 0.00 11.62 -8.35 0.00 12.52 -8.95 0.00 13.42 -9.35 0.00 14.32 -9.45 0.00 15.02 -9.45 0.00 15.62 -9.25 0.00 16.12 -9.05 0.00 16.52 -8.75 0.00 17.02 -8.55 0.00 17.32 -8.15 0.00 17.72 -7.65 0.00 17.92 -7.15 0.00 18.02 -6.55 0.00 17.92 -5.95 0.00 17.82 -5.35 0.00 17.42 -4.65 0.00 17.12 -3.95 0.00 16.72 -3.15 0.00 16.32 -2.55 0.00 16.02 -1.85 0.00 15.72 -1.25 0.00 15.42 -0.65 0.00 15.12 -0.15 0.00 14.92 0.25 0.00 14.62 0.55 0.00 14.32 0.65 0.00 14.22 0.55 0.00 14.22 0.35 0.00 14.42 -0.05 0.00 14.72 -0.45 0.00 15.02 -1.05 0.00 15.32 -1.45 0.00 15.72 -1.95 0.00 15.92 -2.35 0.00 16.12 -2.85 0.00 16.22 -3.35 0.00 16.22 -3.85 0.00 16.22 -4.35 0.00 16.12 -4.75 0.00 15.92 -5.15 0.00 15.62 -5.45 0.00 15.42 -5.65 0.00 15.22 -5.85 0.00 14.92 -5.75 0.00 14.72 -5.65 0.00 14.62 -5.45 0.00 14.52 -5.15 0.00 14.42 -4.75 0.00 14.32 -4.25 0.00 14.22 -3.65 0.00 14.12 -3.05 0.00 14.02 -2.35 0.00 13.82 -1.75 0.00 13.62 -1.15 0.00 13.42 -0.85 0.00 13.22 -0.85 0.00 13.12 -1.25 0.00 13.22 -1.75 0.00 13.52 -2.55 0.00 14.02 -3.35 0.00 7.42 -1.55 0.00 8.02 -3.05 0.00 8.72 -4.55 0.00 9.72 -5.85 0.00 10.62 -7.05 0.00 11.62 -8.05 0.00 12.52 -9.15 0.00 13.52 -9.85 0.00 14.42 -10.45 0.00 15.32 -10.75 0.00 16.02 -10.85 0.00 16.52 -10.65 0.00 16.92 -10.35 0.00 17.32 -9.85 0.00 17.62 -9.55 0.00 18.22 -9.15 0.00 18.82 -8.75 0.00 19.32 -8.15 0.00 19.62 -7.55 0.00 19.72 -6.75 0.00 19.52 -5.95 0.00 19.22 -5.15 0.00 18.72 -4.25 0.00 18.32 -3.45 0.00 17.72 -2.65 0.00 17.32 -1.85 0.00 16.92 -1.25 0.00 16.52 -0.55 0.00 16.22 -0.15 0.00 15.92 0.35 0.00 15.72 0.65 0.00 15.42 0.85 0.00 15.12 0.95 0.00 15.02 0.95 0.00 14.92 0.65 0.00 14.92 0.35 0.00 15.12 -0.35 0.00 15.42 -0.85 0.00 15.72 -1.65 0.00 16.22 -2.15 0.00 16.62 -2.65 0.00 17.12 -2.95 0.00 17.52 -3.35 0.00 17.82 -3.55 0.00 17.92 -3.85 0.00 17.92 -4.15 0.00 17.82 -4.35 0.00 17.72 -4.45 0.00 17.52 -4.45 0.00 17.12 -4.45 0.00 16.72 -4.35 0.00 16.32 -4.15 0.00 15.92 -4.15 0.00 15.62 -3.95 0.00 15.32 -3.75 0.00 15.02 -3.45 0.00 14.72 -3.15 0.00 14.42 -2.65 0.00 14.22 -2.25 0.00 14.12 -1.65 0.00 14.02 -1.15 0.00 14.02 -0.65 0.00 14.02 -0.55 0.00 14.12 -0.85 0.00 14.32 -1.65 0.00 14.72 -2.75 0.00 15.32 -4.05 0.00 16.12 -5.25 0.00 9.72 -2.35 0.00 10.22 -4.35 0.00 11.12 -6.25 0.00 12.12 -7.85 0.00 13.02 -9.25 0.00 14.02 -10.45 0.00 14.92 -11.35 0.00 15.82 -11.95 0.00 16.62 -12.25 0.00 17.12 -12.15 0.00 17.62 -11.95 0.00 17.92 -11.45 0.00 18.32 -11.05 0.00 18.72 -10.65 0.00 19.32 -10.15 0.00 19.92 -9.65 0.00 20.52 -8.95 0.00 21.02 -8.05 0.00 21.12 -7.05 0.00 20.92 -5.95 0.00 20.52 -4.75 0.00 19.82 -3.65 0.00 19.12 -2.65 0.00 18.42 -1.75 0.00 17.72 -1.05 0.00 17.12 -0.45 0.00 16.52 0.05 0.00 16.12 0.55 0.00 15.72 0.75 0.00 15.32 1.05 0.00 15.12 1.15 0.00 14.82 1.25 0.00 14.62 1.25 0.00 14.52 1.05 0.00 14.42 0.65 0.00 14.52 0.25 0.00 14.62 -0.45 0.00 14.72 -1.05 0.00 15.02 -1.75 0.00 15.32 -2.15 0.00 15.72 -2.65 0.00 16.02 -2.85 0.00 16.32 -3.15 0.00 16.52 -3.25 0.00 16.62 -3.45 0.00 16.52 -3.65 0.00 16.52 -3.75 0.00 16.32 -3.95 0.00 16.12 -3.95 0.00 15.82 -3.85 0.00 15.42 -3.7