# vtk DataFile Version 2.0
VTK from Matlab
ASCII
DATASET STRUCTURED_GRID
DIMENSIONS 61 509 1
POINTS 31049 float
1.00 1.00 0.00 1.00 2.00 0.00 1.00 3.00 0.00 1.00 4.00 0.00 1.00 5.00 0.00 1.00 6.00 0.00 1.00 7.00 0.00 1.00 8.00 0.00 1.00 9.00 0.00 1.00 10.00 0.00 1.00 11.00 0.00 1.00 12.00 0.00 1.00 13.00 0.00 1.00 14.00 0.00 1.00 15.00 0.00 1.00 16.00 0.00 1.00 17.00 0.00 1.00 18.00 0.00 1.00 19.00 0.00 1.00 20.00 0.00 1.00 21.00 0.00 1.00 22.00 0.00 1.00 23.00 0.00 1.00 24.00 0.00 1.00 25.00 0.00 1.00 26.00 0.00 1.00 27.00 0.00 1.00 28.00 0.00 1.00 29.00 0.00 1.00 30.00 0.00 1.00 31.00 0.00 1.00 32.00 0.00 1.00 33.00 0.00 1.00 34.00 0.00 1.00 35.00 0.00 1.00 36.00 0.00 1.00 37.00 0.00 1.00 38.00 0.00 1.00 39.00 0.00 1.00 40.00 0.00 1.00 41.00 0.00 1.00 42.00 0.00 1.00 43.00 0.00 1.00 44.00 0.00 1.00 45.00 0.00 1.00 46.00 0.00 1.00 47.00 0.00 1.00 48.00 0.00 1.00 49.00 0.00 1.00 50.00 0.00 1.00 51.00 0.00 1.00 52.00 0.00 1.00 53.00 0.00 1.00 54.00 0.00 1.00 55.00 0.00 1.00 56.00 0.00 1.00 57.00 0.00 1.00 58.00 0.00 1.00 59.00 0.00 1.00 60.00 0.00 1.00 61.00 0.00 2.00 1.00 0.00 2.00 2.00 0.00 2.00 3.00 0.00 2.00 4.00 0.00 2.00 5.00 0.00 2.00 6.00 0.00 2.00 7.00 0.00 2.00 8.00 0.00 2.00 9.00 0.00 2.00 10.00 0.00 2.00 11.00 0.00 2.00 12.00 0.00 2.00 13.00 0.00 2.00 14.00 0.00 2.00 15.00 0.00 2.00 16.00 0.00 2.00 17.00 0.00 2.00 18.00 0.00 2.00 19.00 0.00 2.00 20.00 0.00 2.00 21.00 0.00 2.00 22.00 0.00 2.00 23.00 0.00 2.00 24.00 0.00 2.00 25.00 0.00 2.00 26.00 0.00 2.00 27.00 0.00 2.00 28.00 0.00 2.00 29.00 0.00 2.00 30.00 0.00 2.00 31.00 0.00 2.00 32.00 0.00 2.00 33.00 0.00 2.00 34.00 0.00 2.00 35.00 0.00 2.00 36.00 0.00 2.00 37.00 0.00 2.00 38.00 0.00 2.00 39.00 0.00 2.00 40.00 0.00 2.00 41.00 0.00 2.00 42.00 0.00 2.00 43.00 0.00 2.00 44.00 0.00 2.00 45.00 0.00 2.00 46.00 0.00 2.00 47.00 0.00 2.00 48.00 0.00 2.00 49.00 0.00 2.00 50.00 0.00 2.00 51.00 0.00 2.00 52.00 0.00 2.00 53.00 0.00 2.00 54.00 0.00 2.00 55.00 0.00 2.00 56.00 0.00 2.00 57.00 0.00 2.00 58.00 0.00 2.00 59.00 0.00 2.00 60.00 0.00 2.00 61.00 0.00 3.00 1.00 0.00 3.00 2.00 0.00 3.00 3.00 0.00 3.00 4.00 0.00 3.00 5.00 0.00 3.00 6.00 0.00 3.00 7.00 0.00 3.00 8.00 0.00 3.00 9.00 0.00 3.00 10.00 0.00 3.00 11.00 0.00 3.00 12.00 0.00 3.00 13.00 0.00 3.00 14.00 0.00 3.00 15.00 0.00 3.00 16.00 0.00 3.00 17.00 0.00 3.00 18.00 0.00 3.00 19.00 0.00 3.00 20.00 0.00 3.00 21.00 0.00 3.00 22.00 0.00 3.00 23.00 0.00 3.00 24.00 0.00 3.00 25.00 0.00 3.00 26.00 0.00 3.00 27.00 0.00 3.00 28.00 0.00 3.00 29.00 0.00 3.00 30.00 0.00 3.00 31.00 0.00 3.00 32.00 0.00 3.00 33.00 0.00 3.00 34.00 0.00 3.00 35.00 0.00 3.00 36.00 0.00 3.00 37.00 0.00 3.00 38.00 0.00 3.00 39.00 0.00 3.00 40.00 0.00 3.00 41.00 0.00 3.00 42.00 0.00 3.00 43.00 0.00 3.00 44.00 0.00 3.00 45.00 0.00 3.00 46.00 0.00 3.00 47.00 0.00 3.00 48.00 0.00 3.00 49.00 0.00 3.00 50.00 0.00 3.00 51.00 0.00 3.00 52.00 0.00 3.00 53.00 0.00 3.00 54.00 0.00 3.00 55.00 0.00 3.00 56.00 0.00 3.00 57.00 0.00 3.00 58.00 0.00 3.00 59.00 0.00 3.00 60.00 0.00 3.00 61.00 0.00 4.00 1.00 0.00 4.00 2.00 0.00 4.00 3.00 0.00 4.00 4.00 0.00 4.00 5.00 0.00 4.00 6.00 0.00 4.00 7.00 0.00 4.00 8.00 0.00 4.00 9.00 0.00 4.00 10.00 0.00 4.00 11.00 0.00 4.00 12.00 0.00 4.00 13.00 0.00 4.00 14.00 0.00 4.00 15.00 0.00 4.00 16.00 0.00 4.00 17.00 0.00 4.00 18.00 0.00 4.00 19.00 0.00 4.00 20.00 0.00 4.00 21.00 0.00 4.00 22.00 0.00 4.00 23.00 0.00 4.00 24.00 0.00 4.00 25.00 0.00 4.00 26.00 0.00 4.00 27.00 0.00 4.00 28.00 0.00 4.00 29.00 0.00 4.00 30.00 0.00 4.00 31.00 0.00 4.00 32.00 0.00 4.00 33.00 0.00 4.00 34.00 0.00 4.00 35.00 0.00 4.00 36.00 0.00 4.00 37.00 0.00 4.00 38.00 0.00 4.00 39.00 0.00 4.00 40.00 0.00 4.00 41.00 0.00 4.00 42.00 0.00 4.00 43.00 0.00 4.00 44.00 0.00 4.00 45.00 0.00 4.00 46.00 0.00 4.00 47.00 0.00 4.00 48.00 0.00 4.00 49.00 0.00 4.00 50.00 0.00 4.00 51.00 0.00 4.00 52.00 0.00 4.00 53.00 0.00 4.00 54.00 0.00 4.00 55.00 0.00 4.00 56.00 0.00 4.00 57.00 0.00 4.00 58.00 0.00 4.00 59.00 0.00 4.00 60.00 0.00 4.00 61.00 0.00 5.00 1.00 0.00 5.00 2.00 0.00 5.00 3.00 0.00 5.00 4.00 0.00 5.00 5.00 0.00 5.00 6.00 0.00 5.00 7.00 0.00 5.00 8.00 0.00 5.00 9.00 0.00 5.00 10.00 0.00 5.00 11.00 0.00 5.00 12.00 0.00 5.00 13.00 0.00 5.00 14.00 0.00 5.00 15.00 0.00 5.00 16.00 0.00 5.00 17.00 0.00 5.00 18.00 0.00 5.00 19.00 0.00 5.00 20.00 0.00 5.00 21.00 0.00 5.00 22.00 0.00 5.00 23.00 0.00 5.00 24.00 0.00 5.00 25.00 0.00 5.00 26.00 0.00 5.00 27.00 0.00 5.00 28.00 0.00 5.00 29.00 0.00 5.00 30.00 0.00 5.00 31.00 0.00 5.00 32.00 0.00 5.00 33.00 0.00 5.00 34.00 0.00 5.00 35.00 0.00 5.00 36.00 0.00 5.00 37.00 0.00 5.00 38.00 0.00 5.00 39.00 0.00 5.00 40.00 0.00 5.00 41.00 0.00 5.00 42.00 0.00 5.00 43.00 0.00 5.00 44.00 0.00 5.00 45.00 0.00 5.00 46.00 0.00 5.00 47.00 0.00 5.00 48.00 0.00 5.00 49.00 0.00 5.00 50.00 0.00 5.00 51.00 0.00 5.00 52.00 0.00 5.00 53.00 0.00 5.00 54.00 0.00 5.00 55.00 0.00 5.00 56.00 0.00 5.00 57.00 0.00 5.00 58.00 0.00 5.00 59.00 0.00 5.00 60.00 0.00 5.00 61.00 0.00 6.00 1.00 0.00 6.00 2.00 0.00 6.00 3.00 0.00 6.00 4.00 0.00 6.00 5.00 0.00 6.00 6.00 0.00 6.00 7.00 0.00 6.00 8.00 0.00 6.00 9.00 0.00 6.00 10.00 0.00 6.00 11.00 0.00 6.00 12.00 0.00 6.00 13.00 0.00 6.00 14.00 0.00 6.00 15.00 0.00 6.00 16.00 0.00 6.00 17.00 0.00 6.00 18.00 0.00 6.00 19.00 0.00 6.00 20.00 0.00 6.00 21.00 0.00 6.00 22.00 0.00 6.00 23.00 0.00 6.00 24.00 0.00 6.00 25.00 0.00 6.00 26.00 0.00 6.00 27.00 0.00 6.00 28.00 0.00 6.00 29.00 0.00 6.00 30.00 0.00 6.00 31.00 0.00 6.00 32.00 0.00 6.00 33.00 0.00 6.00 34.00 0.00 6.00 35.00 0.00 6.00 36.00 0.00 6.00 37.00 0.00 6.00 38.00 0.00 6.00 39.00 0.00 6.00 40.00 0.00 6.00 41.00 0.00 6.00 42.00 0.00 6.00 43.00 0.00 6.00 44.00 0.00 6.00 45.00 0.00 6.00 46.00 0.00 6.00 47.00 0.00 6.00 48.00 0.00 6.00 49.00 0.00 6.00 50.00 0.00 6.00 51.00 0.00 6.00 52.00 0.00 6.00 53.00 0.00 6.00 54.00 0.00 6.00 55.00 0.00 6.00 56.00 0.00 6.00 57.00 0.00 6.00 58.00 0.00 6.00 59.00 0.00 6.00 60.00 0.00 6.00 61.00 0.00 7.00 1.00 0.00 7.00 2.00 0.00 7.00 3.00 0.00 7.00 4.00 0.00 7.00 5.00 0.00 7.00 6.00 0.00 7.00 7.00 0.00 7.00 8.00 0.00 7.00 9.00 0.00 7.00 10.00 0.00 7.00 11.00 0.00 7.00 12.00 0.00 7.00 13.00 0.00 7.00 14.00 0.00 7.00 15.00 0.00 7.00 16.00 0.00 7.00 17.00 0.00 7.00 18.00 0.00 7.00 19.00 0.00 7.00 20.00 0.00 7.00 21.00 0.00 7.00 22.00 0.00 7.00 23.00 0.00 7.00 24.00 0.00 7.00 25.00 0.00 7.00 26.00 0.00 7.00 27.00 0.00 7.00 28.00 0.00 7.00 29.00 0.00 7.00 30.00 0.00 7.00 31.00 0.00 7.00 32.00 0.00 7.00 33.00 0.00 7.00 34.00 0.00 7.00 35.00 0.00 7.00 36.00 0.00 7.00 37.00 0.00 7.00 38.00 0.00 7.00 39.00 0.00 7.00 40.00 0.00 7.00 41.00 0.00 7.00 42.00 0.00 7.00 43.00 0.00 7.00 44.00 0.00 7.00 45.00 0.00 7.00 46.00 0.00 7.00 47.00 0.00 7.00 48.00 0.00 7.00 49.00 0.00 7.00 50.00 0.00 7.00 51.00 0.00 7.00 52.00 0.00 7.00 53.00 0.00 7.00 54.00 0.00 7.00 55.00 0.00 7.00 56.00 0.00 7.00 57.00 0.00 7.00 58.00 0.00 7.00 59.00 0.00 7.00 60.00 0.00 7.00 61.00 0.00 8.00 1.00 0.00 8.00 2.00 0.00 8.00 3.00 0.00 8.00 4.00 0.00 8.00 5.00 0.00 8.00 6.00 0.00 8.00 7.00 0.00 8.00 8.00 0.00 8.00 9.00 0.00 8.00 10.00 0.00 8.00 11.00 0.00 8.00 12.00 0.00 8.00 13.00 0.00 8.00 14.00 0.00 8.00 15.00 0.00 8.00 16.00 0.00 8.00 17.00 0.00 8.00 18.00 0.00 8.00 19.00 0.00 8.00 20.00 0.00 8.00 21.00 0.00 8.00 22.00 0.00 8.00 23.00 0.00 8.00 24.00 0.00 8.00 25.00 0.00 8.00 26.00 0.00 8.00 27.00 0.00 8.00 28.00 0.00 8.00 29.00 0.00 8.00 30.00 0.00 8.00 31.00 0.00 8.00 32.00 0.00 8.00 33.00 0.00 8.00 34.00 0.00 8.00 35.00 0.00 8.00 36.00 0.00 8.00 37.00 0.00 8.00 38.00 0.00 8.00 39.00 0.00 8.00 40.00 0.00 8.00 41.00 0.00 8.00 42.00 0.00 8.00 43.00 0.00 8.00 44.00 0.00 8.00 45.00 0.00 8.00 46.00 0.00 8.00 47.00 0.00 8.00 48.00 0.00 8.00 49.00 0.00 8.00 50.00 0.00 8.00 51.00 0.00 8.00 52.00 0.00 8.00 53.00 0.00 8.00 54.00 0.00 8.00 55.00 0.00 8.00 56.00 0.00 8.00 57.00 0.00 8.00 58.00 0.00 8.00 59.00 0.00 8.00 60.00 0.00 8.00 61.00 0.00 9.00 1.00 0.00 9.00 2.00 0.00 9.00 3.00 0.00 9.00 4.00 0.00 9.00 5.00 0.00 9.00 6.00 0.00 9.00 7.00 0.00 9.00 8.00 0.00 9.00 9.00 0.00 9.00 10.00 0.00 9.00 11.00 0.00 9.00 12.00 0.00 9.00 13.00 0.00 9.00 14.00 0.00 9.00 15.00 0.00 9.00 16.00 0.00 9.00 17.00 0.00 9.00 18.00 0.00 9.00 19.00 0.00 9.00 20.00 0.00 9.00 21.00 0.00 9.00 22.00 0.00 9.00 23.00 0.00 9.00 24.00 0.00 9.00 25.00 0.00 9.00 26.00 0.00 9.00 27.00 0.00 9.00 28.00 0.00 9.00 29.00 0.00 9.00 30.00 0.00 9.00 31.00 0.00 9.00 32.00 0.00 9.00 33.00 0.00 9.00 34.00 0.00 9.00 35.00 0.00 9.00 36.00 0.00 9.00 37.00 0.00 9.00 38.00 0.00 9.00 39.00 0.00 9.00 40.00 0.00 9.00 41.00 0.00 9.00 42.00 0.00 9.00 43.00 0.00 9.00 44.00 0.00 9.00 45.00 0.00 9.00 46.00 0.00 9.00 47.00 0.00 9.00 48.00 0.00 9.00 49.00 0.00 9.00 50.00 0.00 9.00 51.00 0.00 9.00 52.00 0.00 9.00 53.00 0.00 9.00 54.00 0.00 9.00 55.00 0.00 9.00 56.00 0.00 9.00 57.00 0.00 9.00 58.00 0.00 9.00 59.00 0.00 9.00 60.00 0.00 9.00 61.00 0.00 10.00 1.00 0.00 10.00 2.00 0.00 10.00 3.00 0.00 10.00 4.00 0.00 10.00 5.00 0.00 10.00 6.00 0.00 10.00 7.00 0.00 10.00 8.00 0.00 10.00 9.00 0.00 10.00 10.00 0.00 10.00 11.00 0.00 10.00 12.00 0.00 10.00 13.00 0.00 10.00 14.00 0.00 10.00 15.00 0.00 10.00 16.00 0.00 10.00 17.00 0.00 10.00 18.00 0.00 10.00 19.00 0.00 10.00 20.00 0.00 10.00 21.00 0.00 10.00 22.00 0.00 10.00 23.00 0.00 10.00 24.00 0.00 10.00 25.00 0.00 10.00 26.00 0.00 10.00 27.00 0.00 10.00 28.00 0.00 10.00 29.00 0.00 10.00 30.00 0.00 10.00 31.00 0.00 10.00 32.00 0.00 10.00 33.00 0.00 10.00 34.00 0.00 10.00 35.00 0.00 10.00 36.00 0.00 10.00 37.00 0.00 10.00 38.00 0.00 10.00 39.00 0.00 10.00 40.00 0.00 10.00 41.00 0.00 10.00 42.00 0.00 10.00 43.00 0.00 10.00 44.00 0.00 10.00 45.00 0.00 10.00 46.00 0.00 10.00 47.00 0.00 10.00 48.00 0.00 10.00 49.00 0.00 10.00 50.00 0.00 10.00 51.00 0.00 10.00 52.00 0.00 10.00 53.00 0.00 10.00 54.00 0.00 10.00 55.00 0.00 10.00 56.00 0.00 10.00 57.00 0.00 10.00 58.00 0.00 10.00 59.00 0.00 10.00 60.00 0.00 10.00 61.00 0.00 11.00 1.00 0.00 11.00 2.00 0.00 11.00 3.00 0.00 11.00 4.00 0.00 11.00 5.00 0.00 11.00 6.00 0.00 11.00 7.00 0.00 11.00 8.00 0.00 11.00 9.00 0.00 11.00 10.00 0
[...]
POINT_DATA 31049
SCALARS flow2 float
LOOKUP_TABLE default
0.00 4.00 8.00 12.00 16.00 12.00 8.00 4.00 0.00 0.00 0.00 0.00 0.00 4.00 8.00 12.00 16.00 12.00 8.00 4.00 0.00 4.00 8.00 12.00 16.00 16.00 16.00 16.00 16.00 12.00 8.00 4.00 0.00 4.00 8.00 12.00 16.00 12.00 8.00 4.00 0.00 4.00 8.00 12.00 16.00 12.00 8.00 4.00 0.00 0.00 0.00 0.00 0.00 4.00 8.00 12.00 16.00 12.00 8.00 4.00 0.00 0.00 3.06 6.12 9.19 12.25 9.19 6.12 3.06 0.00 0.00 0.00 0.00 0.00 3.00 6.00 9.00 12.00 10.00 8.00 6.00 4.00 7.00 10.00 13.00 16.00 16.19 16.38 16.56 16.75 13.75 10.75 7.75 4.75 7.56 10.38 13.19 16.00 13.00 10.00 7.00 4.00 7.00 10.00 13.00 16.00 12.00 8.00 4.00 0.00 0.00 0.00 0.00 0.00 3.06 6.12 9.19 12.25 9.19 6.12 3.06 0.00 0.00 2.12 4.25 6.38 8.50 6.38 4.25 2.12 0.00 0.00 0.00 0.00 0.00 2.00 4.00 6.00 8.00 8.00 8.00 8.00 8.00 10.00 12.00 14.00 16.00 16.38 16.75 17.12 17.50 15.50 13.50 11.50 9.50 11.12 12.75 14.38 16.00 14.00 12.00 10.00 8.00 10.00 12.00 14.00 16.00 12.00 8.00 4.00 0.00 0.00 0.00 0.00 0.00 2.12 4.25 6.38 8.50 6.38 4.25 2.12 0.00 0.00 1.19 2.38 3.56 4.75 3.56 2.38 1.19 0.00 0.00 0.00 0.00 0.00 1.00 2.00 3.00 4.00 6.00 8.00 10.00 12.00 13.00 14.00 15.00 16.00 16.56 17.12 17.69 18.25 17.25 16.25 15.25 14.25 14.69 15.12 15.56 16.00 15.00 14.00 13.00 12.00 13.00 14.00 15.00 16.00 12.00 8.00 4.00 0.00 0.00 0.00 0.00 0.00 1.19 2.38 3.56 4.75 3.56 2.38 1.19 0.00 0.00 0.25 0.50 0.75 1.00 0.75 0.50 0.25 0.00 0.00 0.00 0.00 0.00 0.00 0.00 0.00 0.00 4.00 8.00 12.00 16.00 16.00 16.00 16.00 16.00 16.75 17.50 18.25 19.00 19.00 19.00 19.00 19.00 18.25 17.50 16.75 16.00 16.00 16.00 16.00 16.00 16.00 16.00 16.00 16.00 12.00 8.00 4.00 0.00 0.00 0.00 0.00 0.00 0.25 0.50 0.75 1.00 0.75 0.50 0.25 0.00 0.25 0.44 0.62 0.81 1.00 0.81 0.62 0.44 0.25 0.25 0.25 0.25 0.25 0.19 0.12 0.06 0.00 4.00 8.00 12.00 16.00 16.19 16.38 16.56 16.75 18.31 19.88 21.44 23.00 23.00 23.00 23.00 23.00 22.44 21.88 21.31 20.75 19.75 18.75 17.75 16.75 15.56 14.38 13.19 12.00 9.00 6.00 3.00 0.00 0.06 0.12 0.19 0.25 0.44 0.62 0.81 1.00 0.81 0.62 0.44 0.25 0.50 0.62 0.75 0.88 1.00 0.88 0.75 0.62 0.50 0.50 0.50 0.50 0.50 0.38 0.25 0.12 0.00 4.00 8.00 12.00 16.00 16.38 16.75 17.12 17.50 19.88 22.25 24.62 27.00 27.00 27.00 27.00 27.00 26.62 26.25 25.88 25.50 23.50 21.50 19.50 17.50 15.12 12.75 10.38 8.00 6.00 4.00 2.00 0.00 0.12 0.25 0.38 0.50 0.62 0.75 0.88 1.00 0.88 0.75 0.62 0.50 0.75 0.81 0.88 0.94 1.00 0.94 0.88 0.81 0.75 0.75 0.75 0.75 0.75 0.56 0.38 0.19 0.00 4.00 8.00 12.00 16.00 16.56 17.12 17.69 18.25 21.44 24.62 27.81 31.00 31.00 31.00 31.00 31.00 30.81 30.62 30.44 30.25 27.25 24.25 21.25 18.25 14.69 11.12 7.56 4.00 3.00 2.00 1.00 0.00 0.19 0.38 0.56 0.75 0.81 0.88 0.94 1.00 0.94 0.88 0.81 0.75 1.00 1.00 1.00 1.00 1.00 1.00 1.00 1.00 1.00 1.00 1.00 1.00 1.00 0.75 0.50 0.25 0.00 4.00 8.00 12.00 16.00 16.75 17.50 18.25 19.00 23.00 27.00 31.00 35.00 35.00 35.00 35.00 35.00 35.00 35.00 35.00 35.00 31.00 27.00 23.00 19.00 14.25 9.50 4.75 0.00 0.00 0.00 0.00 0.00 0.25 0.50 0.75 1.00 1.00 1.00 1.00 1.00 1.00 1.00 1.00 1.00 1.25 3.44 5.62 7.81 10.00 10.00 10.00 10.00 10.00 7.75 5.50 3.25 1.00 0.81 0.62 0.44 0.25 4.19 8.12 12.06 16.00 16.62 17.25 17.88 18.50 21.56 24.62 27.69 30.75 30.75 30.75 30.75 30.75 30.69 30.62 30.56 30.50 27.62 24.75 21.88 19.00 14.25 9.50 4.75 0.00 0.06 0.12 0.19 0.25 2.69 5.12 7.56 10.00 10.00 10.00 10.00 10.00 7.81 5.62 3.44 1.25 1.50 5.88 10.25 14.62 19.00 19.00 19.00 19.00 19.00 14.50 10.00 5.50 1.00 0.88 0.75 0.62 0.50 4.38 8.25 12.12 16.00 16.50 17.00 17.50 18.00 20.12 22.25 24.38 26.50 26.50 26.50 26.50 26.50 26.38 26.25 26.12 26.00 24.25 22.50 20.75 19.00 14.25 9.50 4.75 0.00 0.12 0.25 0.38 0.50 5.12 9.75 14.38 19.00 19.00 19.00 19.00 19.00 14.62 10.25 5.88 1.50 1.75 8.31 14.88 21.44 28.00 28.00 28.00 28.00 28.00 21.25 14.50 7.75 1.00 0.94 0.88 0.81 0.75 4.56 8.38 12.19 16.00 16.38 16.75 17.12 17.50 18.69 19.88 21.06 22.25 22.25 22.25 22.25 22.25 22.06 21.88 21.69 21.50 20.88 20.25 19.62 19.00 14.25 9.50 4.75 0.00 0.19 0.38 0.56 0.75 7.56 14.38 21.19 28.00 28.00 28.00 28.00 28.00 21.44 14.88 8.31 1.75 2.00 10.75 19.50 28.25 37.00 37.00 37.00 37.00 37.00 28.00 19.00 10.00 1.00 1.00 1.00 1.00 1.00 4.75 8.50 12.25 16.00 16.25 16.50 16.75 17.00 17.25 17.50 17.75 18.00 18.00 18.00 18.00 18.00 17.75 17.50 17.25 17.00 17.50 18.00 18.50 19.00 14.25 9.50 4.75 0.00 0.25 0.50 0.75 1.00 10.00 19.00 28.00 37.00 37.00 37.00 37.00 37.00 28.25 19.50 10.75 2.00 2.00 9.69 17.38 25.06 32.75 31.62 30.50 29.38 28.25 23.69 19.12 14.56 10.00 7.75 5.50 3.25 1.00 3.75 6.50 9.25 12.00 13.25 14.50 15.75 17.00 17.94 18.88 19.81 20.75 20.31 19.88 19.44 19.00 18.56 18.12 17.69 17.25 17.69 18.12 18.56 19.00 14.25 9.50 4.75 0.00 2.50 5.00 7.50 10.00 14.56 19.12 23.69 28.25 29.38 30.50 31.62 32.75 26.19 19.62 13.06 6.50 2.00 8.62 15.25 21.88 28.50 26.25 24.00 21.75 19.50 19.38 19.25 19.12 19.00 14.50 10.00 5.50 1.00 2.75 4.50 6.25 8.00 10.25 12.50 14.75 17.00 18.62 20.25 21.88 23.50 22.62 21.75 20.88 20.00 19.38 18.75 18.12 17.50 17.88 18.25 18.62 19.00 14.25 9.50 4.75 0.00 4.75 9.50 14.25 19.00 19.12 19.25 19.38 19.50 21.75 24.00 26.25 28.50 24.12 19.75 15.38 11.00 2.00 7.56 13.12 18.69 24.25 20.88 17.50 14.12 10.75 15.06 19.38 23.69 28.00 21.25 14.50 7.75 1.00 1.75 2.50 3.25 4.00 7.25 10.50 13.75 17.00 19.31 21.62 23.94 26.25 24.94 23.62 22.31 21.00 20.19 19.38 18.56 17.75 18.06 18.38 18.69 19.00 14.25 9.50 4.75 0.00 7.00 14.00 21.00 28.00 23.69 19.38 15.06 10.75 14.12 17.50 20.88 24.25 22.06 19.88 17.69 15.50 2.00 6.50 11.00 15.50 20.00 15.50 11.00 6.50 2.00 10.75 19.50 28.25 37.00 28.00 19.00 10.00 1.00 0.75 0.50 0.25 0.00 4.25 8.50 12.75 17.00 20.00 23.00 26.00 29.00 27.25 25.50 23.75 22.00 21.00 20.00 19.00 18.00 18.25 18.50 18.75 19.00 14.25 9.50 4.75 0.00 9.25 18.50 27.75 37.00 28.25 19.50 10.75 2.00 6.50 11.00 15.50 20.00 20.00 20.00 20.00 20.00 2.25 5.62 9.00 12.38 15.75 12.38 9.00 5.62 2.25 9.88 17.50 25.12 32.75 24.88 17.00 9.12 1.25 3.25 5.25 7.25 9.25 11.19 13.12 15.06 17.00 21.12 25.25 29.38 33.50 32.12 30.75 29.38 28.00 26.12 24.25 22.38 20.50 19.94 19.38 18.81 18.25 16.00 13.75 11.50 9.25 15.12 21.00 26.88 32.75 25.12 17.50 9.88 2.25 7.31 12.38 17.44 22.50 22.50 22.50 22.50 22.50 2.50 4.75 7.00 9.25 11.50 9.25 7.00 4.75 2.50 9.00 15.50 22.00 28.50 21.75 15.00 8.25 1.50 5.75 10.00 14.25 18.50 18.12 17.75 17.38 17.00 22.25 27.50 32.75 38.00 37.00 36.00 35.00 34.00 31.25 28.50 25.75 23.00 21.62 20.25 18.88 17.50 17.75 18.00 18.25 18.50 21.00 23.50 26.00 28.50 22.00 15.50 9.00 2.50 8.12 13.75 19.38 25.00 25.00 25.00 25.00 25.00 2.75 3.88 5.00 6.12 7.25 6.12 5.00 3.88 2.75 8.12 13.50 18.88 24.25 18.62 13.00 7.38 1.75 8.25 14.75 21.25 27.75 25.06 22.38 19.69 17.00 23.38 29.75 36.12 42.50 41.88 41.25 40.62 40.00 36.38 32.75 29.12 25.50 23.31 21.12 18.94 16.75 19.50 22.25 25.00 27.75 26.88 26.00 25.12 24.25 18.88 13.50 8.12 2.75 8.94 15.12 21.31 27.50 27.50 27.50 27.50 27.50 3.00 3.00 3.00 3.00 3.00 3.00 3.00 3.00 3.00 7.25 11.50 15.75 20.00 15.50 11.00 6.50 2.00 10.75 19.50 28.25 37.00 32.00 27.00 22.00 17.00 24.50 32.00 39.50 47.00 46.75 46.50 46.25 46.00 41.50 37.00 32.50 28.00 25.00 22.00 19.00 16.00 21.25 26.50 31.75 37.00 32.75 28.50 24.25 20.00 15.75 11.50 7.25 3.00 9.75 16.50 23.25 30.00 30.00 30.00 30.00 30.00 3.25 4.88 6.50 8.12 9.75 8.12 6.50 4.88 3.25 6.44 9.62 12.81 16.00 12.56 9.12 5.69 2.25 10.50 18.75 27.00 35.25 29.62 24.00 18.38 12.75 22.69 32.62 42.56 52.50 53.06 53.62 54.19 54.75 47.88 41.00 34.12 27.25 25.75 24.25 22.75 21.25 24.12 27.00 29.88 32.75 30.19 27.62 25.06 22.50 18.38 14.25 10.12 6.00 11.06 16.12 21.19 26.25 26.25 26.25 26.25 26.25 3.50 6.75 10.00 13.25 16.50 13.25 10.00 6.75 3.50 5.62 7.75 9.88 12.00 9.62 7.25 4.88 2.50 10.25 18.00 25.75 33.50 27.25 21.00 14.75 8.50 20.88 33.25 45.62 58.00 59.38 60.75 62.12 63.50 54.25 45.00 35.75 26.50 26.50 26.50 26.50 26.50 27.00 27.50 28.00 28.50 27.62 26.75 25.88 25.00 21.00 17.00 13.00 9.00 12.38 15.75 19.12 22.50 22.50 22.50 22.50 22.50 3.75 8.62 13.50 18.38 23.25 18.38 13.50 8.62 3.75 4.81 5.88 6.94 8.00 6.69 5.38 4.06 2.75 10.00 17.25 24.50 31.75 24.88 18.00 11.12 4.25 19.06 33.88 48.69 63.50 65.69 67.88 70.06 72.25 60.62 49.00 37.38 25.75 27.25 28.75 30.25 31.75 29.88 28.00 26.12 24.25 25.06 25.88 26.69 27.50 23.62 19.75 15.88 12.00 13.69 15.38 17.06 18.75 18.75 18.75 18.75 18.75 4.00 10.50 17.00 23.50 30.00 23.50 17.00 10.50 4.00 4.00 4.00 4.00 4.00 3.75 3.50 3.25 3.00 9.75 16.50 23.25 30.00 22.50 15.00 7.50 0.00 17.25 34.50 51.75 69.00 72.00 75.00 78.00 81.00 67.00 53.00 39.00 25.00 28.00 31.00 34.00 37.00 32.75 28.50 24.25 20.00 22.50 25.00 27.50 30.00 26.25 22.50 18.75 15.00 15.00 15.00 15.00 15.00 15.00 15.00 15.00 15.00 4.25 9.12 14.00 18.88 23.75 18.88 14.00 9.12 4.25 4.31 4.38 4.44 4.50 4.25 4.00 3.75 3.50 8.94 14.38 19.81 25.25 19.81 14.38 8.94 3.50 19.94 36.38 52.81 69.25 71.69 74.12 76.56 79.00 64.12 49.25 34.38 19.50 22.00 24.50 27.00 29.50 26.25 23.00 19.75 16.50 18.38 20.25 22.12 24.00 22.94 21.88 20.81 19.75 18.00 16.25 14.50 12.75 12.75 12.75 12.75 12.75 4.50 7.75 11.00 14.25 17.50 14.25 11.00 7.75 4.50 4.62 4.75 4.88 5.00 4.75 4.50 4.25 4.00 8.12 12.25 16.38 20.50 17.12 13.75 10.38 7.00 22.62 38.25 53.88 69.50 71.38 73.25 75.12 77.00 61.25 45.50 29.75 14.00 16.00 18.00 20.00 22.00 19.75 17.50 15.25 13.00 14.25 15.50 16.75 18.00 19.62 21.25 22.88 24.50 21.00 17.50 14.00 10.50 10.50 10.50 10.50 10.50 4.75 6.38 8.00 9.62 11.25 9.62 8.00 6.38 4.75 4.94 5.12 5.31 5.50 5.25 5.00 4.75 4.50 7.31 10.12 12.94 15.75 14.44 13.12 11.81 10.50 25.31 40.12 54.94 69.75 71.06 72.38 73.69 75.00 58.38 41.75 25.12 8.50 10.00 11.50 13.00 14.50 13.25 12.00 10.75 9.50 10.12 10.75 11.38 12.00 16.31 20.62 24.94 29.25 24.00 18.75 13.50 8.25 8.25 8.25 8.25 8.25 5.00 5.00 5.00 5.00 5.00 5.00 5.00 5.00 5.00 5.25 5.50 5.75 6.00 5.75 5.50 5.25 5.00 6.50 8.00 9.50 11.00 11.75 12.50 13.25 14.00 28.00 42.00 56.00 70.00 70.75 71.50 72.25 73.00 55.50 38.00 20.50 3.00 4.00 5.00 6.00 7.00 6.75 6.50 6.25 6.00 6.00 6.00 6.00 6.00 13.00 20.00 27.00 34.00 27.00 20.00 13.00 6.00 6.00 6.00 6.00 6.00 5.25 5.25 5.25 5.25 5.25 7.00 8.75 10.50 12.25 10.81 9.38 7.94 6.50 6.69 6.88 7.06 7.25 9.19 11.12 13.06 15.00 15.56 16.12 16.69 17.25 30.50 43.75 57.00 70.25 71.50 72.75 74.00 75.25 57.06 38.88 20.69 2.50 4.88 7.25 9.62 12.00 12.06 12.12 12.19 12.25 10.94 9.62 8.31 7.00 12.19 17.38 22.56 27.75 22.44 17.12 11.81 6.50 6.44 6.38 6.31 6.25 5.50 5.50 5.50 5.50 5.50 9.00 12.50 16.00 19.50 16.38 13.25 10.12 7.00 7.62 8.25 8.88 9.50 11.88 14.25 16.62 19.00 19.38 19.75 20.12 20.50 33.00 45.50 58.00 70.50 72.25 74.00 75.75 77.50 58.62 39.75 20.88 2.00 5.75 9.50 13.25 17.00 17.38 17.75 18.12 18.50 15.88 13.25 10.62 8.00 11.38 14.75 18.12 21.50 17.88 14.25 10.62 7.00 6.88 6.75 6.62 6.50 5.75 5.75 5.75 5.75 5.75 11.00 16.25 21.50 26.75 21.94 17.12 12.31 7.50 8.56 9.62 10.69 11.75 14.56 17.38 20.19 23.00 23.19 23.38 23.56 23.75 35.50 47.25 59.00 70.75 73.00 75.25 77.50 79.75 60.19 40.62 21.06 1.50 6.62 11.75 16.88 22.00 22.69 23.38 24.06 24.75 20.81 16.88 12.94 9.00 10.56 12.12 13.69 15.25 13.31 11.38 9.44 7.50 7.31 7.12 6.94 6.75 6.00 6.00 6.00 6.00 6.00 13.00 20.00 27.00 34.00 27.50 21.00 14.50 8.00 9.50 11.00 12.50 14.00 17.25 20.50 23.75 27.00 27.00 27.00 27.00 27.00 38.00 49.00 60.00 71.00 73.75 76.50 79.25 82.00 61.75 41.50 21.25 1.00 7.50 14.00 20.50 27.00 28.00 29.00 30.00 31.00 25.75 20.50 15.25 10.00 9.75 9.50 9.25 9.00 8.75 8.50 8.25 8.00 7.75 7.50 7.25 7.00 6.25 6.25 6.25 6.25 6.25 11.50 16.75 22.00 27.25 22.56 17.88 13.19 8.50 11.06 13.62 16.19 18.75 21.81 24.88 27.94 31.00 30.19 29.38 28.56 27.75 38.62 49.50 60.38 71.25 74.00 76.75 79.50 82.25 65.25 48.25 31.25 14.25 21.31 28.38 35.44 42.50 40.38 38.25 36.12 34.00 29.62 25.25 20.88 16.50 14.94 13.38 11.81 10.25 9.88 9.50 9.12 8.75 8.50 8.25 8.00 7.75 6.50 6.50 6.50 6.50 6.50 10.00 13.50 17.00 20.50 17.62 14.75 11.88 9.00 12.62 16.25 19.88 23.50 26.38 29.25 32.12 35.00 33.38 31.75 30.12 28.50 39.25 50.00 60.75 71.50 74.25 77.00 79.75 82.50 68.75 55.00 41.25 27.50 35.12 42.75 50.38 58.00 52.75 47.50 42.25 37.00 33.50 30.00 26.50 23.00 20.12 17.25 14.38 11.50 11.00 10.50 10.00 9.50 9.25 9.00 8.75 8.50 6.75 6.75 6.75 6.75 6.75 8.50 10.25 12.00 13.75 12.69 11.62 10.56 9.50 14.19 18.88 23.56 28.25 30.94 33.62 36.31 39.00 36.56 34.12 31.69 29.25 39.88 50.50 61.12 71.75 74.50 77.25 80.00 82.75 72.25 61.75 51.25 40.75 48.94 57.12 65.31 73.50 65.12 56.75 48.38 40.00 37.38 34.75 32.12 29.50 25.31 21.12 16.94 12.75 12.12 11.50 10.88 10.25 10.00 9.75 9.50 9.25 7.00 7.00 7.00 7.00 7.00 7.00 7.00 7.00 7.00 7.75 8.50 9.25 10.00 15.75 21.50 27.25 33.00 35.50 38.00 40.50 43.00 39.75 36.50 33.25 30.00 40.50 51.00 61.50 72.00 74.75 77.50 80.25 83.00 75.75 68.50 61.25 54.00 62.75 71.50 80.25 89.00 77.50 66.00 54.50 43.00 41.25 39.50 37.75 36.00 30.50 25.00 19.50 14.00 13.25 12.50 11.75 11.00 10.75 10.50 10.25 10.00 7.00 7.00 7.00 7.00 7.00 7.06 7.12 7.19 7.25 7.94 8.62 9.31 10.00 15.00 20.00 25.00 30.00 32.25 34.50 36.75 39.00 37.62 36.25 34.88 33.50 43.19 52.88 62.56 72.25 75.00 77.75 80.50 83.25 78.06 72.88 67.69 62.50 66.69 70.88 75.06 79.25 70.69 62.12 53.56 45.00 42.50 40.00 37.50 35.00 30.81 26.62 22.44 18.25 16.50 14.75 13.00 11.25 11.19 11.12 11.06 11.00 7.00 7.00 7.00 7.00 7.00 7.12 7.25 7.38 7.50 8.12 8.75 9.38 10.00 14.25 18.50 22.75 27.00 29.00 31.00 33.00 35.00 35.50 36.00 36.50 37.00 45.88 54.75 63.62 72.50 75.25 78.00 80.75 83.50 80.38 77.25 74.12 71.00 70.62 70.25 69.88 69.50 63.88 58.25 52.62 47.00 43.75 40.50 37.25 34.00 31.12 28.25 25.38 22.50 19.75 17.00 14.25 11.50 11.62 11.75 11.88 12.00 7.00 7.00 7.00 7.00 7.00 7.19 7.38 7.56 7.75 8.31 8.88 9.44 10.00 13.50 17.00 20.50 24.00 25.75 27.50 29.25 31.00 33.38 35.75 38.12 40.50 48.56 56.62 64.69 72.75 75.50 78.25 81.00 83.75 82.69 81.62 80.56 79.50 74.56 69.62 64.69 59.75 57.06 54.38 51.69 49.00 45.00 41.00 37.00 33.00 31.44 29.88 28.31 26.75 23.00 19.25 15.50 11.75 12.06 12.38 12.69 13.00 7.00 7.00 7.00 7.00 7.00 7.25 7.50 7.75 8.00 8.50 9.00 9.50 10.00 12.75 15.50 18.25 21.00 22.50 24.00 25.50 27.00 31.25 35.50 39.75 44.00 51.25 58.50 65.75 73.00 75.75 78.50 81.25 84.00 85.00 86.00 87.00 88.00 78.50 69.00 59.50 50.00 50.25 50.50 50.75 51.00 46.25 41.50 36.75 32.00 31.75 31.50 31.25 31.00 26.25 21.50 16.75 12.00 12.50 13.00 13.50 14.00 7.00 7.06 7.12 7.19 7.25 7.38 7.50 7.62 7.75 8.19 8.62 9.06 9.50 11.94 14.38 16.81 19.25 20.25 21.25 22.25 23.25 29.56 35.88 42.19 48.50 54.69 60.88 67.06 73.25 76.00 78.75 81.50 84.25 83.25 82.25 81.25 80.25 75.19 70.12 65.06 60.00 60.19 60.38 60.56 60.75 53.25 45.75 38.25 30.75 31.12 31.50 31.88 32.25 27.25 22.25 17.25 12.25 12.56 12.88 13.19 13.50 7.00 7.12 7.25 7.38 7.50 7.50 7.50 7.50 7.50 7.88 8.25 8.62 9.00 11.12 13.25 15.38 17.50 18.00 18.50 19.00 19.50 27.88 36.25 44.62 53.00 58.12 63.25 68.38 73.50 76.25 79.00 81.75 84.50 81.50 78.50 75.50 72.50 71.88 71.25 70.62 70.00 70.12 70.25 70.38 70.50 60.25 50.00 39.75 29.50 30.50 31.50 32.50 33.50 28.25 23.00 17.75 12.50 12.62 12.75 12.88 13.00 7.00 7.19 7.38 7.56 7.75 7.62 7.50 7.38 7.25 7.56 7.88 8.19 8.50 10.31 12.12 13.94 15.75 15.75 15.75 15.75 15.75 26.19 36.62 47.06 57.50 61.56 65.62 69.69 73.75 76.50 79.25 82.00 84.75 79.75 74.75 69.75 64.75 68.56 72.38 76.19 80.00 80.06 80.12 80.19 80.25 67.25 54.25 41.25 28.25 29.88 31.50 33.12 34.75 29.25 23.75 18.25 12.75 12.69 12.62 12.56 12.50 7.00 7.25 7.50 7.75 8.00 7.75 7.50 7.25 7.00 7.25 7.50 7.75 8.00 9.50 11.00 12.50 14.00 13.50 13.00 12.50 12.00 24.50 37.00 49.50 62.00 65.00 68.00 71.00 74.00 76.75 79.50 82.25 85.00 78.00 71.00 64.00 57.00 65.25 73.50 81.75 90.00 90.00 90.00 90.00 90.00 74.25 58.50 42.75 27.00 29.25 31.50 33.75 36.00 30.25 24.50 18.75 13.00 12.75 12.50 12.25 12.00 7.25 7.44 7.62 7.81 8.00 7.75 7.50 7.25 7.00 7.19 7.38 7.56 7.75 8.88 10.00 11.12 12.25 12.69 13.12 13.56 14.00 26.06 38.12 50.19 62.25 65.00 67.75 70.50 73.25 76.25 79.25 82.25 85.25 76.81 68.38 59.94 51.50 61.19 70.88 80.56 90.25 90.19 90.12 90.06 90.00 74.56 59.12 43.69 28.25 30.19 32.12 34.06 36.00 30.19 24.38 18.56 12.75 12.69 12.62 12.56 12.50 7.50 7.62 7.75 7.88 8.00 7.75 7.50 7.25 7.00 7.12 7.25 7.38 7.50 8.25 9.00 9.75 10.50 11.88 13.25 14.62 16.00 27.62 39.25 50.88 62.50 65.00 67.50 70.00 72.50 75.75 79.00 82.25 85.50 75.62 65.75 55.88 46.00 57.12 68.25 79.38 90.50 90.38 90.25 90.12 90.00 74.88 59.75 44.62 29.50 31.12 32.75 34.38 36.00 30.12 24.25 18.38 12.50 12.62 12.75 12.88 13.00 7.75 7.81 7.88 7.94 8.00 7.75 7.50 7.25 7.00 7.06 7.12 7.19 7.25 7.62 8.00 8.38 8.75 11.06 13.38 15.69 18.00 29.19 40.38 51.56 62.75 65.00 67.25 69.50 71.75 75.25 78.75 82.25 85.75 74.44 63.12 51.81 40.50 53.06 65.62 78.19 90.75 90.56 90.38 90.19 90.00 75.19 60.38 45.56 30.75 32.06 33.38 34.69 36.00 30.06 24.12 18.19 12.25 12.56 12.88 13.19 13.50 8.00 8.00 8.00 8.00 8.00 7.75 7.50 7.25 7.00 7.00 7.00 7.00 7.00 7.00 7.00 7.00 7.00 10.25 13.50 16.75 20.00 30.75 41.50 52.25 63.00 65.00 67.00 69.00 71.00 74.75 78.50 82.25 86.00 73.25 60.50 47.75 35.00 49.00 63.00 77.00 91.00 90.75 90.50 90.25 90.00 75.50 61.00 46.50 32.00 33.00 34.00 35.00 36.00 30.00 24.00 18.00 12.00 12.50 13.00 13.50 14.00 8.25 8.19 8.12 8.06 8.00 7.75 7.50 7.25 7.00 7.06 7.12 7.19 7.25 7.19 7.12 7.06 7.00 11.94 16.88 21.81 26.75 35.88 45.00 54.12 63.25 65.44 67.62 69.81 72.00 74.50 77.00 79.50 82.00 68.62 55.25 41.88 28.50 44.19 59.88 75.56 91.25 90.88 90.50 90.12 89.75 74.62 59.50 44.38 29.25 29.44 29.62 29.81 30.00 25.44 20.88 16.31 11.75 12.06 12.38 12.69 13.00 8.50 8.38 8.25 8.12 8.00 7.75 7.50 7.25 7.00 7.12 7.25 7.38 7.50 7.38 7.25 7.12 7.00 13.62 20.25 26.88 33.50 41.00 48.50 56.00 63.50 65.88 68.25 70.62 73.00 74.25 75.50 76.75 78.00 64.00 50.00 36.00 22.00 39.38 56.75 74.12 91.50 91.00 90.50 90.00 89.50 73.75 58.00 42.25 26.50 25.88 25.25 24.62 24.00 20.88 17.75 14.62 11.50 11.62 11.75 11.88 12.00 8.75 8.56 8.38 8.19 8.00 7.75 7.50 7.25 7.00 7.19 7.38 7.56 7.75 7.56 7.38 7.19 7.00 15.31 23.62 31.94 40.25 46.12 52.00 57.88 63.75 66.31 68.88 71.44 74.00 74.00 74.00 74.00 74.00 59.38 44.75 30.12 15.50 34.56 53.62 72.69 91.75 91.12 90.50 89.88 89.25 72.88 56.50 40.12 23.75 22.31 20.88 19.44 18.00 16.31 14.62 12.94 11.25 11.19 11.12 11.06 11.00 9.00 8.75 8.50 8.25 8.00 7.75 7.50 7.25 7.00 7.25 7.50 7.75 8.00 7.75 7.50 7.25 7.00 17.00 27.00 37.00 47.00 51.25 55.50 59.75 64.00 66.75 69.50 72.25 75.00 73.75 72.50 71.25 70.00 54.75 39.50 24.25 9.00 29.75 50.50 71.25 92.00 91.25 90.50 89.75 89.00 72.00 55.00 38.00 21.00 18.75 16.50 14.25 12.00 11.75 11.50 11.25 11.00 10.75 10.50 10.25 10.00 9.25 9.06 8.88 8.69 8.50 8.25 8.00 7.75 7.50 8.00 8.50 9.00 9.50 9.00 8.50 8.00 7.50 17.94 28.38 38.81 49.25 53.00 56.75 60.50 64.25 67.00 69.75 72.50 75.25 72.31 69.38 66.44 63.50 51.56 39.62 27.69 15.75 34.62 53.50 72.38 91.25 87.19 83.12 79.06 75.00 60.88 46.75 32.62 18.50 16.69 14.88 13.06 11.25 10.94 10.62 10.31 10.00 9.81 9.62 9.44 9.25 9.50 9.38 9.25 9.12 9.00 8.75 8.50 8.25 8.00 8.75 9.50 10.25 11.00 10.25 9.50 8.75 8.00 18.88 29.75 40.62 51.50 54.75 58.00 61.25 64.50 67.25 70.00 72.75 75.50 70.88 66.25 61.62 57.00 48.38 39.75 31.12 22.50 39.50 56.50 73.50 90.50 83.12 75.75 68.38 61.00 49.75 38.50 27.25 16.00 14.62 13.25 11.88 10.50 10.12 9.75 9.38 9.00 8.88 8.75 8.62 8.50 9.75 9.69 9.62 9.56 9.50 9.25 9.00 8.75 8.50 9.50 10.50 11.50 12.50 11.50 10.50 9.50 8.50 19.81 31.12 42.44 53.75 56.50 59.25 62.00 64.75 67.50 70.25 73.00 75.75 69.44 63.12 56.81 50.50 45.19 39.88 34.56 29.25 44.38 59.50 74.62 89.75 79.06 68.38 57.69 47.00 38.62 30.25 21.88 13.50 12.56 11.62 10.69 9.75 9.31 8.88 8.44 8.00 7.94 7.88 7.81 7.75 10.00 10.00 10.00 10.00 10.00 9.75 9.50 9.25 9.00 10.25 11.50 12.75 14.00 12.75 11.50 10.25 9.00 20.75 32.50 44.25 56.00 58.25 60.50 62.75 65.00 67.75 70.50 73.25 76.00 68.00 60.00 52.00 44.00 42.00 40.00 38.00 36.00 49.25 62.50 75.75 89.00 75.00 61.00 47.00 33.00 27.50 22.00 16.50 11.00 10.50 10.00 9.50 9.00 8.50 8.00 7.50 7.00 7.00 7.00 7.00 7.00 10.25 10.44 10.62 10.81 11.00 10.75 10.50 10.25 10.00 12.19 14.38 16.56 18.75 17.69 16.62 15.56 14.50 24.94 35.38 45.81 56.25 58.50 60.75 63.00 65.25 67.06 68.88 70.69 72.50 63.69 54.88 46.06 37.25 35.56 33