# vtk DataFile Version 2.0
VTK from Matlab
ASCII
DATASET STRUCTURED_GRID
DIMENSIONS 61 509 1
POINTS 31049 float
1.00 1.00 0.00 1.00 2.00 0.00 1.00 3.00 0.00 1.00 4.00 0.00 1.00 5.00 0.00 1.00 6.00 0.00 1.00 7.00 0.00 1.00 8.00 0.00 1.00 9.00 0.00 1.00 10.00 0.00 1.00 11.00 0.00 1.00 12.00 0.00 1.00 13.00 0.00 1.00 14.00 0.00 1.00 15.00 0.00 1.00 16.00 0.00 1.00 17.00 0.00 1.00 18.00 0.00 1.00 19.00 0.00 1.00 20.00 0.00 1.00 21.00 0.00 1.00 22.00 0.00 1.00 23.00 0.00 1.00 24.00 0.00 1.00 25.00 0.00 1.00 26.00 0.00 1.00 27.00 0.00 1.00 28.00 0.00 1.00 29.00 0.00 1.00 30.00 0.00 1.00 31.00 0.00 1.00 32.00 0.00 1.00 33.00 0.00 1.00 34.00 0.00 1.00 35.00 0.00 1.00 36.00 0.00 1.00 37.00 0.00 1.00 38.00 0.00 1.00 39.00 0.00 1.00 40.00 0.00 1.00 41.00 0.00 1.00 42.00 0.00 1.00 43.00 0.00 1.00 44.00 0.00 1.00 45.00 0.00 1.00 46.00 0.00 1.00 47.00 0.00 1.00 48.00 0.00 1.00 49.00 0.00 1.00 50.00 0.00 1.00 51.00 0.00 1.00 52.00 0.00 1.00 53.00 0.00 1.00 54.00 0.00 1.00 55.00 0.00 1.00 56.00 0.00 1.00 57.00 0.00 1.00 58.00 0.00 1.00 59.00 0.00 1.00 60.00 0.00 1.00 61.00 0.00 2.00 1.00 0.00 2.00 2.00 0.00 2.00 3.00 0.00 2.00 4.00 0.00 2.00 5.00 0.00 2.00 6.00 0.00 2.00 7.00 0.00 2.00 8.00 0.00 2.00 9.00 0.00 2.00 10.00 0.00 2.00 11.00 0.00 2.00 12.00 0.00 2.00 13.00 0.00 2.00 14.00 0.00 2.00 15.00 0.00 2.00 16.00 0.00 2.00 17.00 0.00 2.00 18.00 0.00 2.00 19.00 0.00 2.00 20.00 0.00 2.00 21.00 0.00 2.00 22.00 0.00 2.00 23.00 0.00 2.00 24.00 0.00 2.00 25.00 0.00 2.00 26.00 0.00 2.00 27.00 0.00 2.00 28.00 0.00 2.00 29.00 0.00 2.00 30.00 0.00 2.00 31.00 0.00 2.00 32.00 0.00 2.00 33.00 0.00 2.00 34.00 0.00 2.00 35.00 0.00 2.00 36.00 0.00 2.00 37.00 0.00 2.00 38.00 0.00 2.00 39.00 0.00 2.00 40.00 0.00 2.00 41.00 0.00 2.00 42.00 0.00 2.00 43.00 0.00 2.00 44.00 0.00 2.00 45.00 0.00 2.00 46.00 0.00 2.00 47.00 0.00 2.00 48.00 0.00 2.00 49.00 0.00 2.00 50.00 0.00 2.00 51.00 0.00 2.00 52.00 0.00 2.00 53.00 0.00 2.00 54.00 0.00 2.00 55.00 0.00 2.00 56.00 0.00 2.00 57.00 0.00 2.00 58.00 0.00 2.00 59.00 0.00 2.00 60.00 0.00 2.00 61.00 0.00 3.00 1.00 0.00 3.00 2.00 0.00 3.00 3.00 0.00 3.00 4.00 0.00 3.00 5.00 0.00 3.00 6.00 0.00 3.00 7.00 0.00 3.00 8.00 0.00 3.00 9.00 0.00 3.00 10.00 0.00 3.00 11.00 0.00 3.00 12.00 0.00 3.00 13.00 0.00 3.00 14.00 0.00 3.00 15.00 0.00 3.00 16.00 0.00 3.00 17.00 0.00 3.00 18.00 0.00 3.00 19.00 0.00 3.00 20.00 0.00 3.00 21.00 0.00 3.00 22.00 0.00 3.00 23.00 0.00 3.00 24.00 0.00 3.00 25.00 0.00 3.00 26.00 0.00 3.00 27.00 0.00 3.00 28.00 0.00 3.00 29.00 0.00 3.00 30.00 0.00 3.00 31.00 0.00 3.00 32.00 0.00 3.00 33.00 0.00 3.00 34.00 0.00 3.00 35.00 0.00 3.00 36.00 0.00 3.00 37.00 0.00 3.00 38.00 0.00 3.00 39.00 0.00 3.00 40.00 0.00 3.00 41.00 0.00 3.00 42.00 0.00 3.00 43.00 0.00 3.00 44.00 0.00 3.00 45.00 0.00 3.00 46.00 0.00 3.00 47.00 0.00 3.00 48.00 0.00 3.00 49.00 0.00 3.00 50.00 0.00 3.00 51.00 0.00 3.00 52.00 0.00 3.00 53.00 0.00 3.00 54.00 0.00 3.00 55.00 0.00 3.00 56.00 0.00 3.00 57.00 0.00 3.00 58.00 0.00 3.00 59.00 0.00 3.00 60.00 0.00 3.00 61.00 0.00 4.00 1.00 0.00 4.00 2.00 0.00 4.00 3.00 0.00 4.00 4.00 0.00 4.00 5.00 0.00 4.00 6.00 0.00 4.00 7.00 0.00 4.00 8.00 0.00 4.00 9.00 0.00 4.00 10.00 0.00 4.00 11.00 0.00 4.00 12.00 0.00 4.00 13.00 0.00 4.00 14.00 0.00 4.00 15.00 0.00 4.00 16.00 0.00 4.00 17.00 0.00 4.00 18.00 0.00 4.00 19.00 0.00 4.00 20.00 0.00 4.00 21.00 0.00 4.00 22.00 0.00 4.00 23.00 0.00 4.00 24.00 0.00 4.00 25.00 0.00 4.00 26.00 0.00 4.00 27.00 0.00 4.00 28.00 0.00 4.00 29.00 0.00 4.00 30.00 0.00 4.00 31.00 0.00 4.00 32.00 0.00 4.00 33.00 0.00 4.00 34.00 0.00 4.00 35.00 0.00 4.00 36.00 0.00 4.00 37.00 0.00 4.00 38.00 0.00 4.00 39.00 0.00 4.00 40.00 0.00 4.00 41.00 0.00 4.00 42.00 0.00 4.00 43.00 0.00 4.00 44.00 0.00 4.00 45.00 0.00 4.00 46.00 0.00 4.00 47.00 0.00 4.00 48.00 0.00 4.00 49.00 0.00 4.00 50.00 0.00 4.00 51.00 0.00 4.00 52.00 0.00 4.00 53.00 0.00 4.00 54.00 0.00 4.00 55.00 0.00 4.00 56.00 0.00 4.00 57.00 0.00 4.00 58.00 0.00 4.00 59.00 0.00 4.00 60.00 0.00 4.00 61.00 0.00 5.00 1.00 0.00 5.00 2.00 0.00 5.00 3.00 0.00 5.00 4.00 0.00 5.00 5.00 0.00 5.00 6.00 0.00 5.00 7.00 0.00 5.00 8.00 0.00 5.00 9.00 0.00 5.00 10.00 0.00 5.00 11.00 0.00 5.00 12.00 0.00 5.00 13.00 0.00 5.00 14.00 0.00 5.00 15.00 0.00 5.00 16.00 0.00 5.00 17.00 0.00 5.00 18.00 0.00 5.00 19.00 0.00 5.00 20.00 0.00 5.00 21.00 0.00 5.00 22.00 0.00 5.00 23.00 0.00 5.00 24.00 0.00 5.00 25.00 0.00 5.00 26.00 0.00 5.00 27.00 0.00 5.00 28.00 0.00 5.00 29.00 0.00 5.00 30.00 0.00 5.00 31.00 0.00 5.00 32.00 0.00 5.00 33.00 0.00 5.00 34.00 0.00 5.00 35.00 0.00 5.00 36.00 0.00 5.00 37.00 0.00 5.00 38.00 0.00 5.00 39.00 0.00 5.00 40.00 0.00 5.00 41.00 0.00 5.00 42.00 0.00 5.00 43.00 0.00 5.00 44.00 0.00 5.00 45.00 0.00 5.00 46.00 0.00 5.00 47.00 0.00 5.00 48.00 0.00 5.00 49.00 0.00 5.00 50.00 0.00 5.00 51.00 0.00 5.00 52.00 0.00 5.00 53.00 0.00 5.00 54.00 0.00 5.00 55.00 0.00 5.00 56.00 0.00 5.00 57.00 0.00 5.00 58.00 0.00 5.00 59.00 0.00 5.00 60.00 0.00 5.00 61.00 0.00 6.00 1.00 0.00 6.00 2.00 0.00 6.00 3.00 0.00 6.00 4.00 0.00 6.00 5.00 0.00 6.00 6.00 0.00 6.00 7.00 0.00 6.00 8.00 0.00 6.00 9.00 0.00 6.00 10.00 0.00 6.00 11.00 0.00 6.00 12.00 0.00 6.00 13.00 0.00 6.00 14.00 0.00 6.00 15.00 0.00 6.00 16.00 0.00 6.00 17.00 0.00 6.00 18.00 0.00 6.00 19.00 0.00 6.00 20.00 0.00 6.00 21.00 0.00 6.00 22.00 0.00 6.00 23.00 0.00 6.00 24.00 0.00 6.00 25.00 0.00 6.00 26.00 0.00 6.00 27.00 0.00 6.00 28.00 0.00 6.00 29.00 0.00 6.00 30.00 0.00 6.00 31.00 0.00 6.00 32.00 0.00 6.00 33.00 0.00 6.00 34.00 0.00 6.00 35.00 0.00 6.00 36.00 0.00 6.00 37.00 0.00 6.00 38.00 0.00 6.00 39.00 0.00 6.00 40.00 0.00 6.00 41.00 0.00 6.00 42.00 0.00 6.00 43.00 0.00 6.00 44.00 0.00 6.00 45.00 0.00 6.00 46.00 0.00 6.00 47.00 0.00 6.00 48.00 0.00 6.00 49.00 0.00 6.00 50.00 0.00 6.00 51.00 0.00 6.00 52.00 0.00 6.00 53.00 0.00 6.00 54.00 0.00 6.00 55.00 0.00 6.00 56.00 0.00 6.00 57.00 0.00 6.00 58.00 0.00 6.00 59.00 0.00 6.00 60.00 0.00 6.00 61.00 0.00 7.00 1.00 0.00 7.00 2.00 0.00 7.00 3.00 0.00 7.00 4.00 0.00 7.00 5.00 0.00 7.00 6.00 0.00 7.00 7.00 0.00 7.00 8.00 0.00 7.00 9.00 0.00 7.00 10.00 0.00 7.00 11.00 0.00 7.00 12.00 0.00 7.00 13.00 0.00 7.00 14.00 0.00 7.00 15.00 0.00 7.00 16.00 0.00 7.00 17.00 0.00 7.00 18.00 0.00 7.00 19.00 0.00 7.00 20.00 0.00 7.00 21.00 0.00 7.00 22.00 0.00 7.00 23.00 0.00 7.00 24.00 0.00 7.00 25.00 0.00 7.00 26.00 0.00 7.00 27.00 0.00 7.00 28.00 0.00 7.00 29.00 0.00 7.00 30.00 0.00 7.00 31.00 0.00 7.00 32.00 0.00 7.00 33.00 0.00 7.00 34.00 0.00 7.00 35.00 0.00 7.00 36.00 0.00 7.00 37.00 0.00 7.00 38.00 0.00 7.00 39.00 0.00 7.00 40.00 0.00 7.00 41.00 0.00 7.00 42.00 0.00 7.00 43.00 0.00 7.00 44.00 0.00 7.00 45.00 0.00 7.00 46.00 0.00 7.00 47.00 0.00 7.00 48.00 0.00 7.00 49.00 0.00 7.00 50.00 0.00 7.00 51.00 0.00 7.00 52.00 0.00 7.00 53.00 0.00 7.00 54.00 0.00 7.00 55.00 0.00 7.00 56.00 0.00 7.00 57.00 0.00 7.00 58.00 0.00 7.00 59.00 0.00 7.00 60.00 0.00 7.00 61.00 0.00 8.00 1.00 0.00 8.00 2.00 0.00 8.00 3.00 0.00 8.00 4.00 0.00 8.00 5.00 0.00 8.00 6.00 0.00 8.00 7.00 0.00 8.00 8.00 0.00 8.00 9.00 0.00 8.00 10.00 0.00 8.00 11.00 0.00 8.00 12.00 0.00 8.00 13.00 0.00 8.00 14.00 0.00 8.00 15.00 0.00 8.00 16.00 0.00 8.00 17.00 0.00 8.00 18.00 0.00 8.00 19.00 0.00 8.00 20.00 0.00 8.00 21.00 0.00 8.00 22.00 0.00 8.00 23.00 0.00 8.00 24.00 0.00 8.00 25.00 0.00 8.00 26.00 0.00 8.00 27.00 0.00 8.00 28.00 0.00 8.00 29.00 0.00 8.00 30.00 0.00 8.00 31.00 0.00 8.00 32.00 0.00 8.00 33.00 0.00 8.00 34.00 0.00 8.00 35.00 0.00 8.00 36.00 0.00 8.00 37.00 0.00 8.00 38.00 0.00 8.00 39.00 0.00 8.00 40.00 0.00 8.00 41.00 0.00 8.00 42.00 0.00 8.00 43.00 0.00 8.00 44.00 0.00 8.00 45.00 0.00 8.00 46.00 0.00 8.00 47.00 0.00 8.00 48.00 0.00 8.00 49.00 0.00 8.00 50.00 0.00 8.00 51.00 0.00 8.00 52.00 0.00 8.00 53.00 0.00 8.00 54.00 0.00 8.00 55.00 0.00 8.00 56.00 0.00 8.00 57.00 0.00 8.00 58.00 0.00 8.00 59.00 0.00 8.00 60.00 0.00 8.00 61.00 0.00 9.00 1.00 0.00 9.00 2.00 0.00 9.00 3.00 0.00 9.00 4.00 0.00 9.00 5.00 0.00 9.00 6.00 0.00 9.00 7.00 0.00 9.00 8.00 0.00 9.00 9.00 0.00 9.00 10.00 0.00 9.00 11.00 0.00 9.00 12.00 0.00 9.00 13.00 0.00 9.00 14.00 0.00 9.00 15.00 0.00 9.00 16.00 0.00 9.00 17.00 0.00 9.00 18.00 0.00 9.00 19.00 0.00 9.00 20.00 0.00 9.00 21.00 0.00 9.00 22.00 0.00 9.00 23.00 0.00 9.00 24.00 0.00 9.00 25.00 0.00 9.00 26.00 0.00 9.00 27.00 0.00 9.00 28.00 0.00 9.00 29.00 0.00 9.00 30.00 0.00 9.00 31.00 0.00 9.00 32.00 0.00 9.00 33.00 0.00 9.00 34.00 0.00 9.00 35.00 0.00 9.00 36.00 0.00 9.00 37.00 0.00 9.00 38.00 0.00 9.00 39.00 0.00 9.00 40.00 0.00 9.00 41.00 0.00 9.00 42.00 0.00 9.00 43.00 0.00 9.00 44.00 0.00 9.00 45.00 0.00 9.00 46.00 0.00 9.00 47.00 0.00 9.00 48.00 0.00 9.00 49.00 0.00 9.00 50.00 0.00 9.00 51.00 0.00 9.00 52.00 0.00 9.00 53.00 0.00 9.00 54.00 0.00 9.00 55.00 0.00 9.00 56.00 0.00 9.00 57.00 0.00 9.00 58.00 0.00 9.00 59.00 0.00 9.00 60.00 0.00 9.00 61.00 0.00 10.00 1.00 0.00 10.00 2.00 0.00 10.00 3.00 0.00 10.00 4.00 0.00 10.00 5.00 0.00 10.00 6.00 0.00 10.00 7.00 0.00 10.00 8.00 0.00 10.00 9.00 0.00 10.00 10.00 0.00 10.00 11.00 0.00 10.00 12.00 0.00 10.00 13.00 0.00 10.00 14.00 0.00 10.00 15.00 0.00 10.00 16.00 0.00 10.00 17.00 0.00 10.00 18.00 0.00 10.00 19.00 0.00 10.00 20.00 0.00 10.00 21.00 0.00 10.00 22.00 0.00 10.00 23.00 0.00 10.00 24.00 0.00 10.00 25.00 0.00 10.00 26.00 0.00 10.00 27.00 0.00 10.00 28.00 0.00 10.00 29.00 0.00 10.00 30.00 0.00 10.00 31.00 0.00 10.00 32.00 0.00 10.00 33.00 0.00 10.00 34.00 0.00 10.00 35.00 0.00 10.00 36.00 0.00 10.00 37.00 0.00 10.00 38.00 0.00 10.00 39.00 0.00 10.00 40.00 0.00 10.00 41.00 0.00 10.00 42.00 0.00 10.00 43.00 0.00 10.00 44.00 0.00 10.00 45.00 0.00 10.00 46.00 0.00 10.00 47.00 0.00 10.00 48.00 0.00 10.00 49.00 0.00 10.00 50.00 0.00 10.00 51.00 0.00 10.00 52.00 0.00 10.00 53.00 0.00 10.00 54.00 0.00 10.00 55.00 0.00 10.00 56.00 0.00 10.00 57.00 0.00 10.00 58.00 0.00 10.00 59.00 0.00 10.00 60.00 0.00 10.00 61.00 0.00 11.00 1.00 0.00 11.00 2.00 0.00 11.00 3.00 0.00 11.00 4.00 0.00 11.00 5.00 0.00 11.00 6.00 0.00 11.00 7.00 0.00 11.00 8.00 0.00 11.00 9.00 0.00 11.00 10.00 0
[...]
POINT_DATA 31049
SCALARS meanFlow float
LOOKUP_TABLE default
0.00 2.00 4.00 6.00 8.00 6.00 4.00 2.00 0.00 0.00 0.00 0.00 0.00 2.00 4.00 6.00 8.00 6.00 4.00 2.00 0.00 2.00 4.00 6.00 8.00 8.00 8.00 8.00 8.00 10.25 12.50 14.75 17.00 14.75 12.50 10.25 8.00 10.25 12.50 14.75 17.00 14.75 12.50 10.25 8.00 6.00 4.00 2.00 0.00 0.00 0.00 0.00 0.00 2.00 4.00 6.00 8.00 6.00 4.00 2.00 0.00 0.12 1.66 3.19 4.72 6.25 4.69 3.12 1.56 0.00 0.00 0.00 0.00 0.00 1.50 3.00 4.50 6.00 5.00 4.00 3.00 2.00 4.56 7.12 9.69 12.25 12.12 12.00 11.88 11.75 13.44 15.12 16.81 18.50 16.94 15.38 13.81 12.25 13.94 15.62 17.31 19.00 16.25 13.50 10.75 8.00 6.00 4.00 2.00 0.00 0.00 0.00 0.00 0.00 1.56 3.12 4.69 6.25 4.72 3.19 1.66 0.12 0.25 1.31 2.38 3.44 4.50 3.38 2.25 1.12 0.00 0.00 0.00 0.00 0.00 1.00 2.00 3.00 4.00 4.00 4.00 4.00 4.00 7.12 10.25 13.38 16.50 16.25 16.00 15.75 15.50 16.62 17.75 18.88 20.00 19.12 18.25 17.38 16.50 17.62 18.75 19.88 21.00 17.75 14.50 11.25 8.00 6.00 4.00 2.00 0.00 0.00 0.00 0.00 0.00 1.12 2.25 3.38 4.50 3.44 2.38 1.31 0.25 0.38 0.97 1.56 2.16 2.75 2.06 1.38 0.69 0.00 0.00 0.00 0.00 0.00 0.50 1.00 1.50 2.00 3.00 4.00 5.00 6.00 9.69 13.38 17.06 20.75 20.38 20.00 19.62 19.25 19.81 20.38 20.94 21.50 21.31 21.12 20.94 20.75 21.31 21.88 22.44 23.00 19.25 15.50 11.75 8.00 6.00 4.00 2.00 0.00 0.00 0.00 0.00 0.00 0.69 1.38 2.06 2.75 2.16 1.56 0.97 0.38 0.50 0.62 0.75 0.88 1.00 0.75 0.50 0.25 0.00 0.00 0.00 0.00 0.00 0.00 0.00 0.00 0.00 2.00 4.00 6.00 8.00 12.25 16.50 20.75 25.00 24.50 24.00 23.50 23.00 23.00 23.00 23.00 23.00 23.50 24.00 24.50 25.00 25.00 25.00 25.00 25.00 20.75 16.50 12.25 8.00 6.00 4.00 2.00 0.00 0.00 0.00 0.00 0.00 0.25 0.50 0.75 1.00 0.88 0.75 0.62 0.50 0.62 1.28 1.94 2.59 3.25 3.06 2.88 2.69 2.50 1.94 1.38 0.81 0.25 0.19 0.12 0.06 0.00 3.06 6.12 9.19 12.25 15.31 18.38 21.44 24.50 24.28 24.06 23.84 23.62 23.62 23.62 23.62 23.62 24.00 24.38 24.75 25.12 25.19 25.25 25.31 25.38 20.53 15.69 10.84 6.00 4.50 3.00 1.50 0.00 0.06 0.12 0.19 0.25 0.44 0.62 0.81 1.00 1.47 1.94 2.41 2.88 0.75 1.94 3.12 4.31 5.50 5.38 5.25 5.12 5.00 3.88 2.75 1.62 0.50 0.38 0.25 0.12 0.00 4.12 8.25 12.38 16.50 18.38 20.25 22.12 24.00 24.06 24.12 24.19 24.25 24.25 24.25 24.25 24.25 24.50 24.75 25.00 25.25 25.38 25.50 25.62 25.75 20.31 14.88 9.44 4.00 3.00 2.00 1.00 0.00 0.12 0.25 0.38 0.50 0.62 0.75 0.88 1.00 2.06 3.12 4.19 5.25 0.88 2.59 4.31 6.03 7.75 7.69 7.62 7.56 7.50 5.81 4.12 2.44 0.75 0.56 0.38 0.19 0.00 5.19 10.38 15.56 20.75 21.44 22.12 22.81 23.50 23.84 24.19 24.53 24.88 24.88 24.88 24.88 24.88 25.00 25.12 25.25 25.38 25.56 25.75 25.94 26.12 20.09 14.06 8.03 2.00 1.50 1.00 0.50 0.00 0.19 0.38 0.56 0.75 0.81 0.88 0.94 1.00 2.66 4.31 5.97 7.62 1.00 3.25 5.50 7.75 10.00 10.00 10.00 10.00 10.00 7.75 5.50 3.25 1.00 0.75 0.50 0.25 0.00 6.25 12.50 18.75 25.00 24.50 24.00 23.50 23.00 23.62 24.25 24.88 25.50 25.50 25.50 25.50 25.50 25.50 25.50 25.50 25.50 25.75 26.00 26.25 26.50 19.88 13.25 6.62 0.00 0.00 0.00 0.00 0.00 0.25 0.50 0.75 1.00 1.00 1.00 1.00 1.00 3.25 5.50 7.75 10.00 1.25 4.03 6.81 9.59 12.38 12.91 13.44 13.97 14.50 11.69 8.88 6.06 3.25 2.50 1.75 1.00 0.25 6.44 12.62 18.81 25.00 24.09 23.19 22.28 21.38 21.91 22.44 22.97 23.50 23.53 23.56 23.59 23.62 23.56 23.50 23.44 23.38 23.94 24.50 25.06 25.62 19.22 12.81 6.41 0.00 0.06 0.12 0.19 0.25 2.12 4.00 5.88 7.75 7.75 7.75 7.75 7.75 7.81 7.88 7.94 8.00 1.50 4.81 8.12 11.44 14.75 15.81 16.88 17.94 19.00 15.62 12.25 8.88 5.50 4.25 3.00 1.75 0.50 6.62 12.75 18.88 25.00 23.69 22.38 21.06 19.75 20.19 20.62 21.06 21.50 21.56 21.62 21.69 21.75 21.62 21.50 21.38 21.25 22.12 23.00 23.88 24.75 18.56 12.38 6.19 0.00 0.12 0.25 0.38 0.50 4.00 7.50 11.00 14.50 14.50 14.50 14.50 14.50 12.38 10.25 8.12 6.00 1.75 5.59 9.44 13.28 17.12 18.72 20.31 21.91 23.50 19.56 15.62 11.69 7.75 6.00 4.25 2.50 0.75 6.81 12.88 18.94 25.00 23.28 21.56 19.84 18.12 18.47 18.81 19.16 19.50 19.59 19.69 19.78 19.88 19.69 19.50 19.31 19.12 20.31 21.50 22.69 23.88 17.91 11.94 5.97 0.00 0.19 0.38 0.56 0.75 5.88 11.00 16.12 21.25 21.25 21.25 21.25 21.25 16.94 12.62 8.31 4.00 2.00 6.38 10.75 15.12 19.50 21.62 23.75 25.88 28.00 23.50 19.00 14.50 10.00 7.75 5.50 3.25 1.00 7.00 13.00 19.00 25.00 22.88 20.75 18.62 16.50 16.75 17.00 17.25 17.50 17.62 17.75 17.88 18.00 17.75 17.50 17.25 17.00 18.50 20.00 21.50 23.00 17.25 11.50 5.75 0.00 0.25 0.50 0.75 1.00 7.75 14.50 21.25 28.00 28.00 28.00 28.00 28.00 21.50 15.00 8.50 2.00 2.12 5.97 9.81 13.66 17.50 18.53 19.56 20.59 21.62 19.84 18.06 16.28 14.50 11.69 8.88 6.06 3.25 7.12 11.00 14.88 18.75 18.22 17.69 17.16 16.62 18.81 21.00 23.19 25.38 24.22 23.06 21.91 20.75 19.88 19.00 18.12 17.25 18.69 20.12 21.56 23.00 17.25 11.50 5.75 0.00 1.94 3.88 5.81 7.75 11.22 14.69 18.16 21.62 22.19 22.75 23.31 23.88 19.00 14.12 9.25 4.38 2.25 5.56 8.88 12.19 15.50 15.44 15.38 15.31 15.25 16.19 17.12 18.06 19.00 15.62 12.25 8.88 5.50 7.25 9.00 10.75 12.50 13.56 14.62 15.69 16.75 20.88 25.00 29.12 33.25 30.81 28.38 25.94 23.50 22.00 20.50 19.00 17.50 18.88 20.25 21.62 23.00 17.25 11.50 5.75 0.00 3.62 7.25 10.88 14.50 14.69 14.88 15.06 15.25 16.38 17.50 18.62 19.75 16.50 13.25 10.00 6.75 2.38 5.16 7.94 10.72 13.50 12.34 11.19 10.03 8.88 12.53 16.19 19.84 23.50 19.56 15.62 11.69 7.75 7.38 7.00 6.62 6.25 8.91 11.56 14.22 16.88 22.94 29.00 35.06 41.12 37.41 33.69 29.97 26.25 24.12 22.00 19.88 17.75 19.06 20.38 21.69 23.00 17.25 11.50 5.75 0.00 5.31 10.62 15.94 21.25 18.16 15.06 11.97 8.88 10.56 12.25 13.94 15.62 14.00 12.38 10.75 9.12 2.50 4.75 7.00 9.25 11.50 9.25 7.00 4.75 2.50 8.88 15.25 21.62 28.00 23.50 19.00 14.50 10.00 7.50 5.00 2.50 0.00 4.25 8.50 12.75 17.00 25.00 33.00 41.00 49.00 44.00 39.00 34.00 29.00 26.25 23.50 20.75 18.00 19.25 20.50 21.75 23.00 17.25 11.50 5.75 0.00 7.00 14.00 21.00 28.00 21.62 15.25 8.88 2.50 4.75 7.00 9.25 11.50 11.50 11.50 11.50 11.50 2.75 4.78 6.81 8.84 10.88 9.19 7.50 5.81 4.12 9.44 14.75 20.06 25.38 21.03 16.69 12.34 8.00 7.22 6.44 5.66 4.88 7.91 10.94 13.97 17.00 24.84 32.69 40.53 48.38 45.66 42.94 40.22 37.50 33.16 28.81 24.47 20.12 20.97 21.81 22.66 23.50 19.38 15.25 11.12 7.00 11.22 15.44 19.66 23.88 18.94 14.00 9.06 4.12 6.31 8.50 10.69 12.88 12.88 12.88 12.88 12.88 3.00 4.81 6.62 8.44 10.25 9.12 8.00 6.88 5.75 10.00 14.25 18.50 22.75 18.56 14.38 10.19 6.00 6.94 7.88 8.81 9.75 11.56 13.38 15.19 17.00 24.69 32.38 40.06 47.75 47.31 46.88 46.44 46.00 40.06 34.12 28.19 22.25 22.69 23.12 23.56 24.00 21.50 19.00 16.50 14.00 15.44 16.88 18.31 19.75 16.25 12.75 9.25 5.75 7.88 10.00 12.12 14.25 14.25 14.25 14.25 14.25 3.25 4.84 6.44 8.03 9.62 9.06 8.50 7.94 7.38 10.56 13.75 16.94 20.12 16.09 12.06 8.03 4.00 6.66 9.31 11.97 14.62 15.22 15.81 16.41 17.00 24.53 32.06 39.59 47.12 48.97 50.81 52.66 54.50 46.97 39.44 31.91 24.38 24.41 24.44 24.47 24.50 23.62 22.75 21.88 21.00 19.66 18.31 16.97 15.62 13.56 11.50 9.44 7.38 9.44 11.50 13.56 15.62 15.62 15.62 15.62 15.62 3.50 4.88 6.25 7.62 9.00 9.00 9.00 9.00 9.00 11.12 13.25 15.38 17.50 13.62 9.75 5.88 2.00 6.38 10.75 15.12 19.50 18.88 18.25 17.62 17.00 24.38 31.75 39.12 46.50 50.62 54.75 58.88 63.00 53.88 44.75 35.62 26.50 26.12 25.75 25.38 25.00 25.75 26.50 27.25 28.00 23.88 19.75 15.62 11.50 10.88 10.25 9.62 9.00 11.00 13.00 15.00 17.00 17.00 17.00 17.00 17.00 3.75 5.59 7.44 9.28 11.12 10.78 10.44 10.09 9.75 10.88 12.00 13.12 14.25 11.62 9.00 6.38 3.75 7.53 11.31 15.09 18.88 17.38 15.88 14.38 12.88 22.16 31.44 40.72 50.00 53.59 57.19 60.78 64.38 55.34 46.31 37.28 28.25 27.06 25.88 24.69 23.50 23.59 23.69 23.78 23.88 21.12 18.38 15.62 12.88 12.44 12.00 11.56 11.12 12.62 14.12 15.62 17.12 17.12 17.12 17.12 17.12 4.00 6.31 8.62 10.94 13.25 12.56 11.88 11.19 10.50 10.62 10.75 10.88 11.00 9.62 8.25 6.88 5.50 8.69 11.88 15.06 18.25 15.88 13.50 11.12 8.75 19.94 31.12 42.31 53.50 56.56 59.62 62.69 65.75 56.81 47.88 38.94 30.00 28.00 26.00 24.00 22.00 21.44 20.88 20.31 19.75 18.38 17.00 15.62 14.25 14.00 13.75 13.50 13.25 14.25 15.25 16.25 17.25 17.25 17.25 17.25 17.25 4.25 7.03 9.81 12.59 15.38 14.34 13.31 12.28 11.25 10.38 9.50 8.62 7.75 7.62 7.50 7.38 7.25 9.84 12.44 15.03 17.62 14.38 11.12 7.88 4.62 17.72 30.81 43.91 57.00 59.53 62.06 64.59 67.12 58.28 49.44 40.59 31.75 28.94 26.12 23.31 20.50 19.28 18.06 16.84 15.62 15.62 15.62 15.62 15.62 15.56 15.50 15.44 15.38 15.88 16.38 16.88 17.38 17.38 17.38 17.38 17.38 4.50 7.75 11.00 14.25 17.50 16.12 14.75 13.38 12.00 10.12 8.25 6.38 4.50 5.62 6.75 7.88 9.00 11.00 13.00 15.00 17.00 12.88 8.75 4.62 0.50 15.50 30.50 45.50 60.50 62.50 64.50 66.50 68.50 59.75 51.00 42.25 33.50 29.88 26.25 22.62 19.00 17.12 15.25 13.38 11.50 12.88 14.25 15.62 17.00 17.12 17.25 17.38 17.50 17.50 17.50 17.50 17.50 17.50 17.50 17.50 17.50 4.75 7.19 9.62 12.06 14.50 14.44 14.38 14.31 14.25 11.94 9.62 7.31 5.00 5.81 6.62 7.44 8.25 10.47 12.69 14.91 17.12 13.81 10.50 7.19 3.88 18.66 33.44 48.22 63.00 64.91 66.81 68.72 70.62 59.44 48.25 37.06 25.88 23.44 21.00 18.56 16.12 15.59 15.06 14.53 14.00 14.09 14.19 14.28 14.38 15.34 16.31 17.28 18.25 17.38 16.50 15.62 14.75 14.75 14.75 14.75 14.75 5.00 6.62 8.25 9.88 11.50 12.75 14.00 15.25 16.50 13.75 11.00 8.25 5.50 6.00 6.50 7.00 7.50 9.94 12.38 14.81 17.25 14.75 12.25 9.75 7.25 21.81 36.38 50.94 65.50 67.31 69.12 70.94 72.75 59.12 45.50 31.88 18.25 17.00 15.75 14.50 13.25 14.06 14.88 15.69 16.50 15.31 14.12 12.94 11.75 13.56 15.38 17.19 19.00 17.25 15.50 13.75 12.00 12.00 12.00 12.00 12.00 5.25 6.06 6.88 7.69 8.50 11.06 13.62 16.19 18.75 15.56 12.38 9.19 6.00 6.19 6.38 6.56 6.75 9.41 12.06 14.72 17.38 15.69 14.00 12.31 10.62 24.97 39.31 53.66 68.00 69.72 71.44 73.16 74.88 58.81 42.75 26.69 10.62 10.56 10.50 10.44 10.38 12.53 14.69 16.84 19.00 16.53 14.06 11.59 9.12 11.78 14.44 17.09 19.75 17.12 14.50 11.88 9.25 9.25 9.25 9.25 9.25 5.50 5.50 5.50 5.50 5.50 9.38 13.25 17.12 21.00 17.38 13.75 10.12 6.50 6.38 6.25 6.12 6.00 8.88 11.75 14.62 17.50 16.62 15.75 14.88 14.00 28.12 42.25 56.38 70.50 72.12 73.75 75.38 77.00 58.50 40.00 21.50 3.00 4.12 5.25 6.38 7.50 11.00 14.50 18.00 21.50 17.75 14.00 10.25 6.50 10.00 13.50 17.00 20.50 17.00 13.50 10.00 6.50 6.50 6.50 6.50 6.50 5.75 5.78 5.81 5.84 5.88 9.66 13.44 17.22 21.00 17.56 14.12 10.69 7.25 7.41 7.56 7.72 7.88 11.75 15.62 19.50 23.38 22.91 22.44 21.97 21.50 33.81 46.12 58.44 70.75 72.47 74.19 75.91 77.62 58.84 40.06 21.28 2.50 5.00 7.50 10.00 12.50 15.41 18.31 21.22 24.12 20.28 16.44 12.59 8.75 11.03 13.31 15.59 17.88 15.19 12.50 9.81 7.12 7.09 7.06 7.03 7.00 6.00 6.06 6.12 6.19 6.25 9.94 13.62 17.31 21.00 17.75 14.50 11.25 8.00 8.44 8.88 9.31 9.75 14.62 19.50 24.38 29.25 29.19 29.12 29.06 29.00 39.50 50.00 60.50 71.00 72.81 74.62 76.44 78.25 59.19 40.12 21.06 2.00 5.88 9.75 13.62 17.50 19.81 22.12 24.44 26.75 22.81 18.88 14.94 11.00 12.06 13.12 14.19 15.25 13.38 11.50 9.62 7.75 7.69 7.62 7.56 7.50 6.25 6.34 6.44 6.53 6.62 10.22 13.81 17.41 21.00 17.94 14.88 11.81 8.75 9.47 10.19 10.91 11.62 17.50 23.38 29.25 35.12 35.47 35.81 36.16 36.50 45.19 53.88 62.56 71.25 73.16 75.06 76.97 78.88 59.53 40.19 20.84 1.50 6.75 12.00 17.25 22.50 24.22 25.94 27.66 29.38 25.34 21.31 17.28 13.25 13.09 12.94 12.78 12.62 11.56 10.50 9.44 8.38 8.28 8.19 8.09 8.00 6.50 6.62 6.75 6.88 7.00 10.50 14.00 17.50 21.00 18.12 15.25 12.38 9.50 10.50 11.50 12.50 13.50 20.38 27.25 34.12 41.00 41.75 42.50 43.25 44.00 50.88 57.75 64.62 71.50 73.50 75.50 77.50 79.50 59.88 40.25 20.62 1.00 7.62 14.25 20.88 27.50 28.62 29.75 30.88 32.00 27.88 23.75 19.62 15.50 14.12 12.75 11.38 10.00 9.75 9.50 9.25 9.00 8.88 8.75 8.62 8.50 6.75 6.88 7.00 7.12 7.25 9.91 12.56 15.22 17.88 15.88 13.88 11.88 9.88 11.94 14.00 16.06 18.12 24.03 29.94 35.84 41.75 41.12 40.50 39.88 39.25 47.38 55.50 63.62 71.75 73.88 76.00 78.12 80.25 64.75 49.25 33.75 18.25 23.03 27.81 32.59 37.38 38.28 39.19 40.09 41.00 35.47 29.94 24.41 18.88 16.88 14.88 12.88 10.88 10.56 10.25 9.94 9.62 9.50 9.38 9.25 9.12 7.00 7.12 7.25 7.38 7.50 9.31 11.12 12.94 14.75 13.62 12.50 11.38 10.25 13.38 16.50 19.62 22.75 27.69 32.62 37.56 42.50 40.50 38.50 36.50 34.50 43.88 53.25 62.62 72.00 74.25 76.50 78.75 81.00 69.62 58.25 46.88 35.50 38.44 41.38 44.31 47.25 47.94 48.62 49.31 50.00 43.06 36.12 29.19 22.25 19.62 17.00 14.38 11.75 11.38 11.00 10.62 10.25 10.12 10.00 9.88 9.75 7.25 7.38 7.50 7.62 7.75 8.72 9.69 10.66 11.62 11.38 11.12 10.88 10.62 14.81 19.00 23.19 27.38 31.34 35.31 39.28 43.25 39.88 36.50 33.12 29.75 40.38 51.00 61.62 72.25 74.62 77.00 79.38 81.75 74.50 67.25 60.00 52.75 53.84 54.94 56.03 57.12 57.59 58.06 58.53 59.00 50.66 42.31 33.97 25.62 22.38 19.12 15.88 12.62 12.19 11.75 11.31 10.88 10.75 10.62 10.50 10.38 7.50 7.62 7.75 7.88 8.00 8.12 8.25 8.38 8.50 9.12 9.75 10.38 11.00 16.25 21.50 26.75 32.00 35.00 38.00 41.00 44.00 39.25 34.50 29.75 25.00 36.88 48.75 60.62 72.50 75.00 77.50 80.00 82.50 79.38 76.25 73.12 70.00 69.25 68.50 67.75 67.00 67.25 67.50 67.75 68.00 58.25 48.50 38.75 29.00 25.12 21.25 17.38 13.50 13.00 12.50 12.00 11.50 11.38 11.25 11.12 11.00 7.62 7.75 7.88 8.00 8.12 8.28 8.44 8.59 8.75 9.59 10.44 11.28 12.12 16.47 20.81 25.16 29.50 32.94 36.38 39.81 43.25 39.31 35.38 31.44 27.50 38.81 50.12 61.44 72.75 75.25 77.75 80.25 82.75 80.66 78.56 76.47 74.38 71.44 68.50 65.56 62.62 62.91 63.19 63.47 63.75 55.12 46.50 37.88 29.25 26.47 23.69 20.91 18.12 16.56 15.00 13.44 11.88 12.16 12.44 12.72 13.00 7.75 7.88 8.00 8.12 8.25 8.44 8.62 8.81 9.00 10.06 11.12 12.19 13.25 16.69 20.12 23.56 27.00 30.88 34.75 38.62 42.50 39.38 36.25 33.12 30.00 40.75 51.50 62.25 73.00 75.50 78.00 80.50 83.00 81.94 80.88 79.81 78.75 73.62 68.50 63.38 58.25 58.56 58.88 59.19 59.50 52.00 44.50 37.00 29.50 27.81 26.12 24.44 22.75 20.12 17.50 14.88 12.25 12.94 13.62 14.31 15.00 7.88 8.00 8.12 8.25 8.38 8.59 8.81 9.03 9.25 10.53 11.81 13.09 14.38 16.91 19.44 21.97 24.50 28.81 33.12 37.44 41.75 39.44 37.12 34.81 32.50 42.69 52.88 63.06 73.25 75.75 78.25 80.75 83.25 83.22 83.19 83.16 83.12 75.81 68.50 61.19 53.88 54.22 54.56 54.91 55.25 48.88 42.50 36.12 29.75 29.16 28.56 27.97 27.38 23.69 20.00 16.31 12.62 13.72 14.81 15.91 17.00 8.00 8.12 8.25 8.38 8.50 8.75 9.00 9.25 9.50 11.00 12.50 14.00 15.50 17.12 18.75 20.38 22.00 26.75 31.50 36.25 41.00 39.50 38.00 36.50 35.00 44.62 54.25 63.88 73.50 76.00 78.50 81.00 83.50 84.50 85.50 86.50 87.50 78.00 68.50 59.00 49.50 49.88 50.25 50.62 51.00 45.75 40.50 35.25 30.00 30.50 31.00 31.50 32.00 27.25 22.50 17.75 13.00 14.50 16.00 17.50 19.00 8.00 8.12 8.25 8.38 8.50 8.69 8.88 9.06 9.25 10.41 11.56 12.72 13.88 15.72 17.56 19.41 21.25 25.19 29.12 33.06 37.00 38.19 39.38 40.56 41.75 49.62 57.50 65.38 73.25 75.78 78.31 80.84 83.38 83.47 83.56 83.66 83.75 76.47 69.19 61.91 54.62 56.28 57.94 59.59 61.25 53.75 46.25 38.75 31.25 31.75 32.25 32.75 33.25 28.81 24.38 19.94 15.50 15.97 16.44 16.91 17.38 8.00 8.12 8.25 8.38 8.50 8.62 8.75 8.88 9.00 9.81 10.62 11.44 12.25 14.31 16.38 18.44 20.50 23.62 26.75 29.88 33.00 36.88 40.75 44.62 48.50 54.62 60.75 66.88 73.00 75.56 78.12 80.69 83.25 82.44 81.62 80.81 80.00 74.94 69.88 64.81 59.75 62.69 65.62 68.56 71.50 61.75 52.00 42.25 32.50 33.00 33.50 34.00 34.50 30.38 26.25 22.12 18.00 17.44 16.88 16.31 15.75 8.00 8.12 8.25 8.38 8.50 8.56 8.62 8.69 8.75 9.22 9.69 10.16 10.62 12.91 15.19 17.47 19.75 22.06 24.38 26.69 29.00 35.56 42.12 48.69 55.25 59.62 64.00 68.38 72.75 75.34 77.94 80.53 83.12 81.41 79.69 77.97 76.25 73.41 70.56 67.72 64.88 69.09 73.31 77.53 81.75 69.75 57.75 45.75 33.75 34.25 34.75 35.25 35.75 31.94 28.12 24.31 20.50 18.91 17.31 15.72 14.12 8.00 8.12 8.25 8.38 8.50 8.50 8.50 8.50 8.50 8.62 8.75 8.88 9.00 11.50 14.00 16.50 19.00 20.50 22.00 23.50 25.00 34.25 43.50 52.75 62.00 64.62 67.25 69.88 72.50 75.12 77.75 80.38 83.00 80.38 77.75 75.12 72.50 71.88 71.25 70.62 70.00 75.50 81.00 86.50 92.00 77.75 63.50 49.25 35.00 35.50 36.00 36.50 37.00 33.50 30.00 26.50 23.00 20.38 17.75 15.12 12.50 8.25 8.31 8.38 8.44 8.50 8.47 8.44 8.41 8.38 8.44 8.50 8.56 8.62 10.53 12.44 14.34 16.25 18.12 20.00 21.88 23.75 33.38 43.00 52.62 62.25 64.84 67.44 70.03 72.62 75.12 77.62 80.12 82.62 77.78 72.94 68.09 63.25 66.22 69.19 72.16 75.12 79.38 83.62 87.88 92.12 77.53 62.94 48.34 33.75 34.56 35.38 36.19 37.00 32.88 28.75 24.62 20.50 18.56 16.62 14.69 12.75 8.50 8.50 8.50 8.50 8.50 8.44 8.38 8.31 8.25 8.25 8.25 8.25 8.25 9.56 10.88 12.19 13.50 15.75 18.00 20.25 22.50 32.50 42.50 52.50 62.50 65.06 67.62 70.19 72.75 75.12 77.50 79.88 82.25 75.19 68.12 61.06 54.00 60.56 67.12 73.69 80.25 83.25 86.25 89.25 92.25 77.31 62.38 47.44 32.50 33.62 34.75 35.88 37.00 32.25 27.50 22.75 18.00 16.75 15.50 14.25 13.00 8.75 8.69 8.62 8.56 8.50 8.41 8.31 8.22 8.12 8.06 8.00 7.94 7.88 8.59 9.31 10.03 10.75 13.38 16.00 18.62 21.25 31.62 42.00 52.38 62.75 65.28 67.81 70.34 72.88 75.12 77.38 79.62 81.88 72.59 63.31 54.03 44.75 54.91 65.06 75.22 85.38 87.12 88.88 90.62 92.38 77.09 61.81 46.53 31.25 32.69 34.12 35.56 37.00 31.62 26.25 20.88 15.50 14.94 14.38 13.81 13.25 9.00 8.88 8.75 8.62 8.50 8.38 8.25 8.12 8.00 7.88 7.75 7.62 7.50 7.62 7.75 7.88 8.00 11.00 14.00 17.00 20.00 30.75 41.50 52.25 63.00 65.50 68.00 70.50 73.00 75.12 77.25 79.38 81.50 70.00 58.50 47.00 35.50 49.25 63.00 76.75 90.50 91.00 91.50 92.00 92.50 76.88 61.25 45.62 30.00 31.75 33.50 35.25 37.00 31.00 25.00 19.00 13.00 13.12 13.25 13.38 13.50 9.12 9.00 8.88 8.75 8.62 8.44 8.25 8.06 7.88 7.84 7.81 7.78 7.75 7.75 7.75 7.75 7.75 11.84 15.94 20.03 24.12 33.91 43.69 53.47 63.25 65.84 68.44 71.03 73.62 75.03 76.44 77.84 79.25 66.62 54.00 41.38 28.75 44.25 59.75 75.25 90.75 89.78 88.81 87.84 86.88 72.16 57.44 42.72 28.00 29.34 30.69 32.03 33.38 28.56 23.75 18.94 14.12 13.81 13.50 13.19 12.88 9.25 9.12 9.00 8.88 8.75 8.50 8.25 8.00 7.75 7.81 7.88 7.94 8.00 7.88 7.75 7.62 7.50 12.69 17.88 23.06 28.25 37.06 45.88 54.69 63.50 66.19 68.88 71.56 74.25 74.94 75.62 76.31 77.00 63.25 49.50 35.75 22.00 39.25 56.50 73.75 91.00 88.56 86.12 83.69 81.25 67.44 53.62 39.81 26.00 26.94 27.88 28.81 29.75 26.12 22.50 18.88 15.25 14.50 13.75 13.00 12.25 9.38 9.25 9.12 9.00 8.88 8.56 8.25 7.94 7.62 7.78 7.94 8.09 8.25 8.00 7.75 7.50 7.25 13.53 19.81 26.09 32.38 40.22 48.06 55.91 63.75 66.53 69.31 72.09 74.88 74.84 74.81 74.78 74.75 59.88 45.00 30.12 15.25 34.25 53.25 72.25 91.25 87.34 83.44 79.53 75.62 62.72 49.81 36.91 24.00 24.53 25.06 25.59 26.12 23.69 21.25 18.81 16.38 15.19 14.00 12.81 11.62 9.50 9.38 9.25 9.12 9.00 8.62 8.25 7.88 7.50 7.75 8.00 8.25 8.50 8.12 7.75 7.38 7.00 14.38 21.75 29.12 36.50 43.38 50.25 57.12 64.00 66.88 69.75 72.62 75.50 74.75 74.00 73.25 72.50 56.50 40.50 24.50 8.50 29.25 50.00 70.75 91.50 86.12 80.75 75.38 70.00 58.00 46.00 34.00 22.00 22.12 22.25 22.38 22.50 21.25 20.00 18.75 17.50 15.88 14.25 12.62 11.00 9.75 9.66 9.56 9.47 9.38 9.03 8.69 8.34 8.00 8.69 9.38 10.06 10.75 9.91 9.06 8.22 7.38 15.88 24.38 32.88 41.38 47.09 52.81 58.53 64.25 67.12 70.00 72.88 75.75 73.28 70.81 68.34 65.88 52.81 39.75 26.69 13.62 31.75 49.88 68.00 86.12 79.62 73.12 66.62 60.12 49.97 39.81 29.66 19.50 19.50 19.50 19.50 19.50 18.47 17.44 16.41 15.38 14.12 12.88 11.62 10.38 10.00 9.94 9.88 9.81 9.75 9.44 9.12 8.81 8.50 9.62 10.75 11.88 13.00 11.69 10.38 9.06 7.75 17.38 27.00 36.62 46.25 50.81 55.38 59.94 64.50 67.38 70.25 73.12 76.00 71.81 67.62 63.44 59.25 49.12 39.00 28.88 18.75 34.25 49.75 65.25 80.75 73.12 65.50 57.88 50.25 41.94 33.62 25.31 17.00 16.88 16.75 16.62 16.50 15.69 14.88 14.06 13.25 12.38 11.50 10.62 9.75 10.25 10.22 10.19 10.16 10.12 9.84 9.56 9.28 9.00 10.56 12.12 13.69 15.25 13.47 11.69 9.91 8.12 18.88 29.62 40.38 51.12 54.53 57.94 61.34 64.75 67.62 70.50 73.38 76.25 70.34 64.44 58.53 52.62 45.44 38.25 31.06 23.88 36.75 49.62 62.50 75.38 66.62 57.88 49.12 40.38 33.91 27.44 20.97 14.50 14.25 14.00 13.75 13.50 12.91 12.31 11.72 11.12 10.62 10.12 9.62 9.12 10.50 10.50 10.50 10.50 10.50 10.25 10.00 9.75 9.50 11.50 13.50 15.50 17.50 15.25 13.00 10.75 8.50 20.38 32.25 44.12 56.00 58.25 60.50 62.75 65.00 67.88 70.75 73.62 76.50 68.88 61.25 53.62 46.00 41.75 37.50 33.25 29.00 39.25 49.50 59.75 70.00 60.12 50.25 40.38 30.50 25.88 21.25 16.62 12.00 11.62 11.25 10.88 10.50 10.12 9.75 9.38 9.00 8.88 8.75 8.62 8.50 10.75 10.84 10.94 11.03 11.12 11.28 11.44 11.59 11.75 13.81 15.88 17.94 20.00 17.94 15.88 13.81 11.75 22.88 34